Bondiung_Test_V3.21.data

930 atoms
1 atom types
0.0 100 xlo xhi
0.0 100 ylo yhi
0.0 100 zlo zhi

Atoms

1 1 1 40 50 50 
2 1 1 41 46 49 
3 1 1 41 46 50 
4 1 1 41 46 51 
5 1 1 41 47 47 
6 1 1 41 47 48 
7 1 1 41 47 49 
8 1 1 41 47 50 
9 1 1 41 47 51 
10 1 1 41 47 52 
11 1 1 41 47 53 
12 1 1 41 48 47 
13 1 1 41 48 48 
14 1 1 41 48 49 
15 1 1 41 48 50 
16 1 1 41 48 51 
17 1 1 41 48 52 
18 1 1 41 48 53 
19 1 1 41 49 46 
20 1 1 41 49 47 
21 1 1 41 49 48 
22 1 1 41 49 52 
23 1 1 41 49 53 
24 1 1 41 49 54 
25 1 1 41 50 46 
26 1 1 41 50 47 
27 1 1 41 50 48 
28 1 1 41 50 52 
29 1 1 41 50 53 
30 1 1 41 50 54 
31 1 1 41 51 46 
32 1 1 41 51 47 
33 1 1 41 51 48 
34 1 1 41 51 52 
35 1 1 41 51 53 
36 1 1 41 51 54 
37 1 1 41 52 47 
38 1 1 41 52 48 
39 1 1 41 52 49 
40 1 1 41 52 50 
41 1 1 41 52 51 
42 1 1 41 52 52 
43 1 1 41 52 53 
44 1 1 41 53 47 
45 1 1 41 53 48 
46 1 1 41 53 49 
47 1 1 41 53 50 
48 1 1 41 53 51 
49 1 1 41 53 52 
50 1 1 41 53 53 
51 1 1 41 54 49 
52 1 1 41 54 50 
53 1 1 41 54 51 
54 1 1 42 44 50 
55 1 1 42 45 47 
56 1 1 42 45 48 
57 1 1 42 45 49 
58 1 1 42 45 50 
59 1 1 42 45 51 
60 1 1 42 45 52 
61 1 1 42 45 53 
62 1 1 42 46 46 
63 1 1 42 46 47 
64 1 1 42 46 53 
65 1 1 42 46 54 
66 1 1 42 47 45 
67 1 1 42 47 46 
68 1 1 42 47 54 
69 1 1 42 47 55 
70 1 1 42 48 45 
71 1 1 42 48 55 
72 1 1 42 49 45 
73 1 1 42 49 55 
74 1 1 42 50 44 
75 1 1 42 50 45 
76 1 1 42 50 55 
77 1 1 42 50 56 
78 1 1 42 51 45 
79 1 1 42 51 55 
80 1 1 42 52 45 
81 1 1 42 52 55 
82 1 1 42 53 45 
83 1 1 42 53 46 
84 1 1 42 53 54 
85 1 1 42 53 55 
86 1 1 42 54 46 
87 1 1 42 54 47 
88 1 1 42 54 53 
89 1 1 42 54 54 
90 1 1 42 55 47 
91 1 1 42 55 48 
92 1 1 42 55 49 
93 1 1 42 55 50 
94 1 1 42 55 51 
95 1 1 42 55 52 
96 1 1 42 55 53 
97 1 1 42 56 50 
98 1 1 43 43 49 
99 1 1 43 43 50 
100 1 1 43 43 51 
101 1 1 43 44 47 
102 1 1 43 44 48 
103 1 1 43 44 49 
104 1 1 43 44 50 
105 1 1 43 44 51 
106 1 1 43 44 52 
107 1 1 43 44 53 
108 1 1 43 45 45 
109 1 1 43 45 46 
110 1 1 43 45 54 
111 1 1 43 45 55 
112 1 1 43 46 45 
113 1 1 43 46 55 
114 1 1 43 47 44 
115 1 1 43 47 56 
116 1 1 43 48 44 
117 1 1 43 48 56 
118 1 1 43 49 43 
119 1 1 43 49 44 
120 1 1 43 49 56 
121 1 1 43 49 57 
122 1 1 43 50 43 
123 1 1 43 50 44 
124 1 1 43 50 56 
125 1 1 43 50 57 
126 1 1 43 51 43 
127 1 1 43 51 44 
128 1 1 43 51 56 
129 1 1 43 51 57 
130 1 1 43 52 44 
131 1 1 43 52 56 
132 1 1 43 53 44 
133 1 1 43 53 56 
134 1 1 43 54 45 
135 1 1 43 54 55 
136 1 1 43 55 45 
137 1 1 43 55 46 
138 1 1 43 55 54 
139 1 1 43 55 55 
140 1 1 43 56 47 
141 1 1 43 56 48 
142 1 1 43 56 49 
143 1 1 43 56 50 
144 1 1 43 56 51 
145 1 1 43 56 52 
146 1 1 43 56 53 
147 1 1 43 57 49 
148 1 1 43 57 50 
149 1 1 43 57 51 
150 1 1 44 42 50 
151 1 1 44 43 47 
152 1 1 44 43 48 
153 1 1 44 43 49 
154 1 1 44 43 50 
155 1 1 44 43 51 
156 1 1 44 43 52 
157 1 1 44 43 53 
158 1 1 44 44 45 
159 1 1 44 44 46 
160 1 1 44 44 54 
161 1 1 44 44 55 
162 1 1 44 45 44 
163 1 1 44 45 45 
164 1 1 44 45 55 
165 1 1 44 45 56 
166 1 1 44 46 44 
167 1 1 44 46 56 
168 1 1 44 47 43 
169 1 1 44 47 57 
170 1 1 44 48 43 
171 1 1 44 48 57 
172 1 1 44 49 43 
173 1 1 44 49 57 
174 1 1 44 50 42 
175 1 1 44 50 43 
176 1 1 44 50 57 
177 1 1 44 50 58 
178 1 1 44 51 43 
179 1 1 44 51 57 
180 1 1 44 52 43 
181 1 1 44 52 57 
182 1 1 44 53 43 
183 1 1 44 53 57 
184 1 1 44 54 44 
185 1 1 44 54 56 
186 1 1 44 55 44 
187 1 1 44 55 45 
188 1 1 44 55 55 
189 1 1 44 55 56 
190 1 1 44 56 45 
191 1 1 44 56 46 
192 1 1 44 56 54 
193 1 1 44 56 55 
194 1 1 44 57 47 
195 1 1 44 57 48 
196 1 1 44 57 49 
197 1 1 44 57 50 
198 1 1 44 57 51 
199 1 1 44 57 52 
200 1 1 44 57 53 
201 1 1 44 58 50 
202 1 1 45 42 47 
203 1 1 45 42 48 
204 1 1 45 42 49 
205 1 1 45 42 50 
206 1 1 45 42 51 
207 1 1 45 42 52 
208 1 1 45 42 53 
209 1 1 45 43 45 
210 1 1 45 43 46 
211 1 1 45 43 54 
212 1 1 45 43 55 
213 1 1 45 44 44 
214 1 1 45 44 45 
215 1 1 45 44 55 
216 1 1 45 44 56 
217 1 1 45 45 43 
218 1 1 45 45 44 
219 1 1 45 45 56 
220 1 1 45 45 57 
221 1 1 45 46 43 
222 1 1 45 46 57 
223 1 1 45 47 42 
224 1 1 45 47 58 
225 1 1 45 48 42 
226 1 1 45 48 58 
227 1 1 45 49 42 
228 1 1 45 49 58 
229 1 1 45 50 42 
230 1 1 45 50 58 
231 1 1 45 51 42 
232 1 1 45 51 58 
233 1 1 45 52 42 
234 1 1 45 52 58 
235 1 1 45 53 42 
236 1 1 45 53 58 
237 1 1 45 54 43 
238 1 1 45 54 57 
239 1 1 45 55 43 
240 1 1 45 55 44 
241 1 1 45 55 56 
242 1 1 45 55 57 
243 1 1 45 56 44 
244 1 1 45 56 45 
245 1 1 45 56 55 
246 1 1 45 56 56 
247 1 1 45 57 45 
248 1 1 45 57 46 
249 1 1 45 57 54 
250 1 1 45 57 55 
251 1 1 45 58 47 
252 1 1 45 58 48 
253 1 1 45 58 49 
254 1 1 45 58 50 
255 1 1 45 58 51 
256 1 1 45 58 52 
257 1 1 45 58 53 
258 1 1 46 41 49 
259 1 1 46 41 50 
260 1 1 46 41 51 
261 1 1 46 42 46 
262 1 1 46 42 47 
263 1 1 46 42 53 
264 1 1 46 42 54 
265 1 1 46 43 45 
266 1 1 46 43 55 
267 1 1 46 44 44 
268 1 1 46 44 56 
269 1 1 46 45 43 
270 1 1 46 45 57 
271 1 1 46 46 42 
272 1 1 46 46 58 
273 1 1 46 47 42 
274 1 1 46 47 58 
275 1 1 46 49 41 
276 1 1 46 49 59 
277 1 1 46 50 41 
278 1 1 46 50 59 
279 1 1 46 51 41 
280 1 1 46 51 59 
281 1 1 46 53 42 
282 1 1 46 53 58 
283 1 1 46 54 42 
284 1 1 46 54 58 
285 1 1 46 55 43 
286 1 1 46 55 57 
287 1 1 46 56 44 
288 1 1 46 56 56 
289 1 1 46 57 45 
290 1 1 46 57 55 
291 1 1 46 58 46 
292 1 1 46 58 47 
293 1 1 46 58 53 
294 1 1 46 58 54 
295 1 1 46 59 49 
296 1 1 46 59 50 
297 1 1 46 59 51 
298 1 1 47 41 47 
299 1 1 47 41 48 
300 1 1 47 41 49 
301 1 1 47 41 50 
302 1 1 47 41 51 
303 1 1 47 41 52 
304 1 1 47 41 53 
305 1 1 47 42 45 
306 1 1 47 42 46 
307 1 1 47 42 54 
308 1 1 47 42 55 
309 1 1 47 43 44 
310 1 1 47 43 56 
311 1 1 47 44 43 
312 1 1 47 44 57 
313 1 1 47 45 42 
314 1 1 47 45 58 
315 1 1 47 46 42 
316 1 1 47 46 58 
317 1 1 47 47 41 
318 1 1 47 47 59 
319 1 1 47 48 41 
320 1 1 47 48 59 
321 1 1 47 49 41 
322 1 1 47 49 59 
323 1 1 47 50 41 
324 1 1 47 50 59 
325 1 1 47 51 41 
326 1 1 47 51 59 
327 1 1 47 52 41 
328 1 1 47 52 59 
329 1 1 47 53 41 
330 1 1 47 53 59 
331 1 1 47 54 42 
332 1 1 47 54 58 
333 1 1 47 55 42 
334 1 1 47 55 58 
335 1 1 47 56 43 
336 1 1 47 56 57 
337 1 1 47 57 44 
338 1 1 47 57 56 
339 1 1 47 58 45 
340 1 1 47 58 46 
341 1 1 47 58 54 
342 1 1 47 58 55 
343 1 1 47 59 47 
344 1 1 47 59 48 
345 1 1 47 59 49 
346 1 1 47 59 50 
347 1 1 47 59 51 
348 1 1 47 59 52 
349 1 1 47 59 53 
350 1 1 48 41 47 
351 1 1 48 41 48 
352 1 1 48 41 49 
353 1 1 48 41 50 
354 1 1 48 41 51 
355 1 1 48 41 52 
356 1 1 48 41 53 
357 1 1 48 42 45 
358 1 1 48 42 55 
359 1 1 48 43 44 
360 1 1 48 43 56 
361 1 1 48 44 43 
362 1 1 48 44 57 
363 1 1 48 45 42 
364 1 1 48 45 58 
365 1 1 48 47 41 
366 1 1 48 47 59 
367 1 1 48 48 41 
368 1 1 48 48 59 
369 1 1 48 49 41 
370 1 1 48 49 59 
371 1 1 48 50 41 
372 1 1 48 50 59 
373 1 1 48 51 41 
374 1 1 48 51 59 
375 1 1 48 52 41 
376 1 1 48 52 59 
377 1 1 48 53 41 
378 1 1 48 53 59 
379 1 1 48 55 42 
380 1 1 48 55 58 
381 1 1 48 56 43 
382 1 1 48 56 57 
383 1 1 48 57 44 
384 1 1 48 57 56 
385 1 1 48 58 45 
386 1 1 48 58 55 
387 1 1 48 59 47 
388 1 1 48 59 48 
389 1 1 48 59 49 
390 1 1 48 59 50 
391 1 1 48 59 51 
392 1 1 48 59 52 
393 1 1 48 59 53 
394 1 1 49 41 46 
395 1 1 49 41 47 
396 1 1 49 41 48 
397 1 1 49 41 52 
398 1 1 49 41 53 
399 1 1 49 41 54 
400 1 1 49 42 45 
401 1 1 49 42 55 
402 1 1 49 43 43 
403 1 1 49 43 44 
404 1 1 49 43 56 
405 1 1 49 43 57 
406 1 1 49 44 43 
407 1 1 49 44 57 
408 1 1 49 45 42 
409 1 1 49 45 58 
410 1 1 49 46 41 
411 1 1 49 46 59 
412 1 1 49 47 41 
413 1 1 49 47 59 
414 1 1 49 48 41 
415 1 1 49 48 59 
416 1 1 49 52 41 
417 1 1 49 52 59 
418 1 1 49 53 41 
419 1 1 49 53 59 
420 1 1 49 54 41 
421 1 1 49 54 59 
422 1 1 49 55 42 
423 1 1 49 55 58 
424 1 1 49 56 43 
425 1 1 49 56 57 
426 1 1 49 57 43 
427 1 1 49 57 44 
428 1 1 49 57 56 
429 1 1 49 57 57 
430 1 1 49 58 45 
431 1 1 49 58 55 
432 1 1 49 59 46 
433 1 1 49 59 47 
434 1 1 49 59 48 
435 1 1 49 59 52 
436 1 1 49 59 53 
437 1 1 49 59 54 
438 1 1 50 40 50 
439 1 1 50 41 46 
440 1 1 50 41 47 
441 1 1 50 41 48 
442 1 1 50 41 52 
443 1 1 50 41 53 
444 1 1 50 41 54 
445 1 1 50 42 44 
446 1 1 50 42 45 
447 1 1 50 42 55 
448 1 1 50 42 56 
449 1 1 50 43 43 
450 1 1 50 43 44 
451 1 1 50 43 56 
452 1 1 50 43 57 
453 1 1 50 44 42 
454 1 1 50 44 43 
455 1 1 50 44 57 
456 1 1 50 44 58 
457 1 1 50 45 42 
458 1 1 50 45 58 
459 1 1 50 46 41 
460 1 1 50 46 59 
461 1 1 50 47 41 
462 1 1 50 47 59 
463 1 1 50 48 41 
464 1 1 50 48 59 
465 1 1 50 50 40 
466 1 1 50 50 60 
467 1 1 50 52 41 
468 1 1 50 52 59 
469 1 1 50 53 41 
470 1 1 50 53 59 
471 1 1 50 54 41 
472 1 1 50 54 59 
473 1 1 50 55 42 
474 1 1 50 55 58 
475 1 1 50 56 42 
476 1 1 50 56 43 
477 1 1 50 56 57 
478 1 1 50 56 58 
479 1 1 50 57 43 
480 1 1 50 57 44 
481 1 1 50 57 56 
482 1 1 50 57 57 
483 1 1 50 58 44 
484 1 1 50 58 45 
485 1 1 50 58 55 
486 1 1 50 58 56 
487 1 1 50 59 46 
488 1 1 50 59 47 
489 1 1 50 59 48 
490 1 1 50 59 52 
491 1 1 50 59 53 
492 1 1 50 59 54 
493 1 1 50 60 50 
494 1 1 51 41 46 
495 1 1 51 41 47 
496 1 1 51 41 48 
497 1 1 51 41 52 
498 1 1 51 41 53 
499 1 1 51 41 54 
500 1 1 51 42 45 
501 1 1 51 42 55 
502 1 1 51 43 43 
503 1 1 51 43 44 
504 1 1 51 43 56 
505 1 1 51 43 57 
506 1 1 51 44 43 
507 1 1 51 44 57 
508 1 1 51 45 42 
509 1 1 51 45 58 
510 1 1 51 46 41 
511 1 1 51 46 59 
512 1 1 51 47 41 
513 1 1 51 47 59 
514 1 1 51 48 41 
515 1 1 51 48 59 
516 1 1 51 52 41 
517 1 1 51 52 59 
518 1 1 51 53 41 
519 1 1 51 53 59 
520 1 1 51 54 41 
521 1 1 51 54 59 
522 1 1 51 55 42 
523 1 1 51 55 58 
524 1 1 51 56 43 
525 1 1 51 56 57 
526 1 1 51 57 43 
527 1 1 51 57 44 
528 1 1 51 57 56 
529 1 1 51 57 57 
530 1 1 51 58 45 
531 1 1 51 58 55 
532 1 1 51 59 46 
533 1 1 51 59 47 
534 1 1 51 59 48 
535 1 1 51 59 52 
536 1 1 51 59 53 
537 1 1 51 59 54 
538 1 1 52 41 47 
539 1 1 52 41 48 
540 1 1 52 41 49 
541 1 1 52 41 50 
542 1 1 52 41 51 
543 1 1 52 41 52 
544 1 1 52 41 53 
545 1 1 52 42 45 
546 1 1 52 42 55 
547 1 1 52 43 44 
548 1 1 52 43 56 
549 1 1 52 44 43 
550 1 1 52 44 57 
551 1 1 52 45 42 
552 1 1 52 45 58 
553 1 1 52 47 41 
554 1 1 52 47 59 
555 1 1 52 48 41 
556 1 1 52 48 59 
557 1 1 52 49 41 
558 1 1 52 49 59 
559 1 1 52 50 41 
560 1 1 52 50 59 
561 1 1 52 51 41 
562 1 1 52 51 59 
563 1 1 52 52 41 
564 1 1 52 52 59 
565 1 1 52 53 41 
566 1 1 52 53 59 
567 1 1 52 55 42 
568 1 1 52 55 58 
569 1 1 52 56 43 
570 1 1 52 56 57 
571 1 1 52 57 44 
572 1 1 52 57 56 
573 1 1 52 58 45 
574 1 1 52 58 55 
575 1 1 52 59 47 
576 1 1 52 59 48 
577 1 1 52 59 49 
578 1 1 52 59 50 
579 1 1 52 59 51 
580 1 1 52 59 52 
581 1 1 52 59 53 
582 1 1 53 41 47 
583 1 1 53 41 48 
584 1 1 53 41 49 
585 1 1 53 41 50 
586 1 1 53 41 51 
587 1 1 53 41 52 
588 1 1 53 41 53 
589 1 1 53 42 45 
590 1 1 53 42 46 
591 1 1 53 42 54 
592 1 1 53 42 55 
593 1 1 53 43 44 
594 1 1 53 43 56 
595 1 1 53 44 43 
596 1 1 53 44 57 
597 1 1 53 45 42 
598 1 1 53 45 58 
599 1 1 53 46 42 
600 1 1 53 46 58 
601 1 1 53 47 41 
602 1 1 53 47 59 
603 1 1 53 48 41 
604 1 1 53 48 59 
605 1 1 53 49 41 
606 1 1 53 49 59 
607 1 1 53 50 41 
608 1 1 53 50 59 
609 1 1 53 51 41 
610 1 1 53 51 59 
611 1 1 53 52 41 
612 1 1 53 52 59 
613 1 1 53 53 41 
614 1 1 53 53 59 
615 1 1 53 54 42 
616 1 1 53 54 58 
617 1 1 53 55 42 
618 1 1 53 55 58 
619 1 1 53 56 43 
620 1 1 53 56 57 
621 1 1 53 57 44 
622 1 1 53 57 56 
623 1 1 53 58 45 
624 1 1 53 58 46 
625 1 1 53 58 54 
626 1 1 53 58 55 
627 1 1 53 59 47 
628 1 1 53 59 48 
629 1 1 53 59 49 
630 1 1 53 59 50 
631 1 1 53 59 51 
632 1 1 53 59 52 
633 1 1 53 59 53 
634 1 1 54 41 49 
635 1 1 54 41 50 
636 1 1 54 41 51 
637 1 1 54 42 46 
638 1 1 54 42 47 
639 1 1 54 42 53 
640 1 1 54 42 54 
641 1 1 54 43 45 
642 1 1 54 43 55 
643 1 1 54 44 44 
644 1 1 54 44 56 
645 1 1 54 45 43 
646 1 1 54 45 57 
647 1 1 54 46 42 
648 1 1 54 46 58 
649 1 1 54 47 42 
650 1 1 54 47 58 
651 1 1 54 49 41 
652 1 1 54 49 59 
653 1 1 54 50 41 
654 1 1 54 50 59 
655 1 1 54 51 41 
656 1 1 54 51 59 
657 1 1 54 53 42 
658 1 1 54 53 58 
659 1 1 54 54 42 
660 1 1 54 54 58 
661 1 1 54 55 43 
662 1 1 54 55 57 
663 1 1 54 56 44 
664 1 1 54 56 56 
665 1 1 54 57 45 
666 1 1 54 57 55 
667 1 1 54 58 46 
668 1 1 54 58 47 
669 1 1 54 58 53 
670 1 1 54 58 54 
671 1 1 54 59 49 
672 1 1 54 59 50 
673 1 1 54 59 51 
674 1 1 55 42 47 
675 1 1 55 42 48 
676 1 1 55 42 49 
677 1 1 55 42 50 
678 1 1 55 42 51 
679 1 1 55 42 52 
680 1 1 55 42 53 
681 1 1 55 43 45 
682 1 1 55 43 46 
683 1 1 55 43 54 
684 1 1 55 43 55 
685 1 1 55 44 44 
686 1 1 55 44 45 
687 1 1 55 44 55 
688 1 1 55 44 56 
689 1 1 55 45 43 
690 1 1 55 45 44 
691 1 1 55 45 56 
692 1 1 55 45 57 
693 1 1 55 46 43 
694 1 1 55 46 57 
695 1 1 55 47 42 
696 1 1 55 47 58 
697 1 1 55 48 42 
698 1 1 55 48 58 
699 1 1 55 49 42 
700 1 1 55 49 58 
701 1 1 55 50 42 
702 1 1 55 50 58 
703 1 1 55 51 42 
704 1 1 55 51 58 
705 1 1 55 52 42 
706 1 1 55 52 58 
707 1 1 55 53 42 
708 1 1 55 53 58 
709 1 1 55 54 43 
710 1 1 55 54 57 
711 1 1 55 55 43 
712 1 1 55 55 44 
713 1 1 55 55 56 
714 1 1 55 55 57 
715 1 1 55 56 44 
716 1 1 55 56 45 
717 1 1 55 56 55 
718 1 1 55 56 56 
719 1 1 55 57 45 
720 1 1 55 57 46 
721 1 1 55 57 54 
722 1 1 55 57 55 
723 1 1 55 58 47 
724 1 1 55 58 48 
725 1 1 55 58 49 
726 1 1 55 58 50 
727 1 1 55 58 51 
728 1 1 55 58 52 
729 1 1 55 58 53 
730 1 1 56 42 50 
731 1 1 56 43 47 
732 1 1 56 43 48 
733 1 1 56 43 49 
734 1 1 56 43 50 
735 1 1 56 43 51 
736 1 1 56 43 52 
737 1 1 56 43 53 
738 1 1 56 44 45 
739 1 1 56 44 46 
740 1 1 56 44 54 
741 1 1 56 44 55 
742 1 1 56 45 44 
743 1 1 56 45 45 
744 1 1 56 45 55 
745 1 1 56 45 56 
746 1 1 56 46 44 
747 1 1 56 46 56 
748 1 1 56 47 43 
749 1 1 56 47 57 
750 1 1 56 48 43 
751 1 1 56 48 57 
752 1 1 56 49 43 
753 1 1 56 49 57 
754 1 1 56 50 42 
755 1 1 56 50 43 
756 1 1 56 50 57 
757 1 1 56 50 58 
758 1 1 56 51 43 
759 1 1 56 51 57 
760 1 1 56 52 43 
761 1 1 56 52 57 
762 1 1 56 53 43 
763 1 1 56 53 57 
764 1 1 56 54 44 
765 1 1 56 54 56 
766 1 1 56 55 44 
767 1 1 56 55 45 
768 1 1 56 55 55 
769 1 1 56 55 56 
770 1 1 56 56 45 
771 1 1 56 56 46 
772 1 1 56 56 54 
773 1 1 56 56 55 
774 1 1 56 57 47 
775 1 1 56 57 48 
776 1 1 56 57 49 
777 1 1 56 57 50 
778 1 1 56 57 51 
779 1 1 56 57 52 
780 1 1 56 57 53 
781 1 1 56 58 50 
782 1 1 57 43 49 
783 1 1 57 43 50 
784 1 1 57 43 51 
785 1 1 57 44 47 
786 1 1 57 44 48 
787 1 1 57 44 49 
788 1 1 57 44 50 
789 1 1 57 44 51 
790 1 1 57 44 52 
791 1 1 57 44 53 
792 1 1 57 45 45 
793 1 1 57 45 46 
794 1 1 57 45 54 
795 1 1 57 45 55 
796 1 1 57 46 45 
797 1 1 57 46 55 
798 1 1 57 47 44 
799 1 1 57 47 56 
800 1 1 57 48 44 
801 1 1 57 48 56 
802 1 1 57 49 43 
803 1 1 57 49 44 
804 1 1 57 49 56 
805 1 1 57 49 57 
806 1 1 57 50 43 
807 1 1 57 50 44 
808 1 1 57 50 56 
809 1 1 57 50 57 
810 1 1 57 51 43 
811 1 1 57 51 44 
812 1 1 57 51 56 
813 1 1 57 51 57 
814 1 1 57 52 44 
815 1 1 57 52 56 
816 1 1 57 53 44 
817 1 1 57 53 56 
818 1 1 57 54 45 
819 1 1 57 54 55 
820 1 1 57 55 45 
821 1 1 57 55 46 
822 1 1 57 55 54 
823 1 1 57 55 55 
824 1 1 57 56 47 
825 1 1 57 56 48 
826 1 1 57 56 49 
827 1 1 57 56 50 
828 1 1 57 56 51 
829 1 1 57 56 52 
830 1 1 57 56 53 
831 1 1 57 57 49 
832 1 1 57 57 50 
833 1 1 57 57 51 
834 1 1 58 44 50 
835 1 1 58 45 47 
836 1 1 58 45 48 
837 1 1 58 45 49 
838 1 1 58 45 50 
839 1 1 58 45 51 
840 1 1 58 45 52 
841 1 1 58 45 53 
842 1 1 58 46 46 
843 1 1 58 46 47 
844 1 1 58 46 53 
845 1 1 58 46 54 
846 1 1 58 47 45 
847 1 1 58 47 46 
848 1 1 58 47 54 
849 1 1 58 47 55 
850 1 1 58 48 45 
851 1 1 58 48 55 
852 1 1 58 49 45 
853 1 1 58 49 55 
854 1 1 58 50 44 
855 1 1 58 50 45 
856 1 1 58 50 55 
857 1 1 58 50 56 
858 1 1 58 51 45 
859 1 1 58 51 55 
860 1 1 58 52 45 
861 1 1 58 52 55 
862 1 1 58 53 45 
863 1 1 58 53 46 
864 1 1 58 53 54 
865 1 1 58 53 55 
866 1 1 58 54 46 
867 1 1 58 54 47 
868 1 1 58 54 53 
869 1 1 58 54 54 
870 1 1 58 55 47 
871 1 1 58 55 48 
872 1 1 58 55 49 
873 1 1 58 55 50 
874 1 1 58 55 51 
875 1 1 58 55 52 
876 1 1 58 55 53 
877 1 1 58 56 50 
878 1 1 59 46 49 
879 1 1 59 46 50 
880 1 1 59 46 51 
881 1 1 59 47 47 
882 1 1 59 47 48 
883 1 1 59 47 49 
884 1 1 59 47 50 
885 1 1 59 47 51 
886 1 1 59 47 52 
887 1 1 59 47 53 
888 1 1 59 48 47 
889 1 1 59 48 48 
890 1 1 59 48 49 
891 1 1 59 48 50 
892 1 1 59 48 51 
893 1 1 59 48 52 
894 1 1 59 48 53 
895 1 1 59 49 46 
896 1 1 59 49 47 
897 1 1 59 49 48 
898 1 1 59 49 52 
899 1 1 59 49 53 
900 1 1 59 49 54 
901 1 1 59 50 46 
902 1 1 59 50 47 
903 1 1 59 50 48 
904 1 1 59 50 52 
905 1 1 59 50 53 
906 1 1 59 50 54 
907 1 1 59 51 46 
908 1 1 59 51 47 
909 1 1 59 51 48 
910 1 1 59 51 52 
911 1 1 59 51 53 
912 1 1 59 51 54 
913 1 1 59 52 47 
914 1 1 59 52 48 
915 1 1 59 52 49 
916 1 1 59 52 50 
917 1 1 59 52 51 
918 1 1 59 52 52 
919 1 1 59 52 53 
920 1 1 59 53 47 
921 1 1 59 53 48 
922 1 1 59 53 49 
923 1 1 59 53 50 
924 1 1 59 53 51 
925 1 1 59 53 52 
926 1 1 59 53 53 
927 1 1 59 54 49 
928 1 1 59 54 50 
929 1 1 59 54 51 
930 1 1 60 50 50 

Bonds

1 1 1 1 
2 1 2 2 
3 1 3 2 
4 1 3 3 
5 1 4 3 
6 1 4 4 
7 1 5 5 
8 1 6 5 
9 1 6 6 
10 1 7 2 
11 1 7 6 
12 1 7 7 
13 1 8 2 
14 1 8 3 
15 1 8 7 
16 1 8 8 
17 1 9 3 
18 1 9 4 
19 1 9 8 
20 1 9 9 
21 1 10 4 
22 1 10 9 
23 1 10 10 
24 1 11 10 
25 1 11 11 
26 1 12 5 
27 1 12 12 
28 1 13 5 
29 1 13 6 
30 1 13 12 
31 1 13 13 
32 1 14 6 
33 1 14 7 
34 1 14 13 
35 1 14 14 
36 1 15 7 
37 1 15 8 
38 1 15 14 
39 1 15 15 
40 1 16 8 
41 1 16 9 
42 1 16 15 
43 1 16 16 
44 1 17 9 
45 1 17 10 
46 1 17 16 
47 1 17 17 
48 1 18 10 
49 1 18 11 
50 1 18 17 
51 1 18 18 
52 1 19 19 
53 1 20 12 
54 1 20 19 
55 1 20 20 
56 1 21 12 
57 1 21 13 
58 1 21 20 
59 1 21 21 
60 1 22 16 
61 1 22 17 
62 1 22 22 
63 1 23 17 
64 1 23 18 
65 1 23 22 
66 1 23 23 
67 1 24 18 
68 1 24 23 
69 1 24 24 
70 1 25 19 
71 1 25 25 
72 1 26 19 
73 1 26 20 
74 1 26 25 
75 1 26 26 
76 1 27 20 
77 1 27 21 
78 1 27 26 
79 1 27 27 
80 1 28 22 
81 1 28 28 
82 1 29 22 
83 1 29 23 
84 1 29 28 
85 1 29 29 
86 1 30 23 
87 1 30 24 
88 1 30 29 
89 1 30 30 
90 1 31 25 
91 1 31 31 
92 1 32 25 
93 1 32 26 
94 1 32 31 
95 1 32 32 
96 1 33 26 
97 1 33 27 
98 1 33 32 
99 1 33 33 
100 1 34 28 
101 1 34 34 
102 1 35 28 
103 1 35 29 
104 1 35 34 
105 1 35 35 
106 1 36 29 
107 1 36 30 
108 1 36 35 
109 1 36 36 
110 1 37 31 
111 1 37 32 
112 1 37 37 
113 1 38 32 
114 1 38 33 
115 1 38 37 
116 1 38 38 
117 1 39 33 
118 1 39 38 
119 1 39 39 
120 1 40 39 
121 1 40 40 
122 1 41 40 
123 1 41 41 
124 1 42 34 
125 1 42 41 
126 1 42 42 
127 1 43 34 
128 1 43 35 
129 1 43 42 
130 1 43 43 
131 1 44 37 
132 1 44 44 
133 1 45 37 
134 1 45 38 
135 1 45 44 
136 1 45 45 
137 1 46 38 
138 1 46 39 
139 1 46 45 
140 1 46 46 
141 1 47 39 
142 1 47 40 
143 1 47 46 
144 1 47 47 
145 1 48 40 
146 1 48 41 
147 1 48 47 
148 1 48 48 
149 1 49 41 
150 1 49 42 
151 1 49 48 
152 1 49 49 
153 1 50 42 
154 1 50 43 
155 1 50 49 
156 1 50 50 
157 1 51 45 
158 1 51 46 
159 1 51 51 
160 1 52 46 
161 1 52 47 
162 1 52 51 
163 1 52 52 
164 1 53 47 
165 1 53 48 
166 1 53 52 
167 1 53 53 
168 1 54 54 
169 1 55 55 
170 1 56 55 
171 1 56 56 
172 1 57 56 
173 1 57 57 
174 1 58 54 
175 1 58 57 
176 1 58 58 
177 1 59 54 
178 1 59 58 
179 1 59 59 
180 1 60 59 
181 1 60 60 
182 1 61 60 
183 1 61 61 
184 1 62 62 
185 1 63 55 
186 1 63 62 
187 1 63 63 
188 1 64 60 
189 1 64 61 
190 1 64 64 
191 1 65 61 
192 1 65 64 
193 1 65 65 
194 1 66 66 
195 1 67 62 
196 1 67 66 
197 1 67 67 
198 1 68 11 
199 1 68 64 
200 1 68 65 
201 1 68 68 
202 1 69 65 
203 1 69 68 
204 1 69 69 
205 1 70 66 
206 1 70 70 
207 1 71 68 
208 1 71 69 
209 1 71 71 
210 1 72 70 
211 1 72 72 
212 1 73 24 
213 1 73 71 
214 1 73 73 
215 1 74 74 
216 1 75 72 
217 1 75 74 
218 1 75 75 
219 1 76 24 
220 1 76 30 
221 1 76 73 
222 1 76 76 
223 1 77 73 
224 1 77 76 
225 1 77 77 
226 1 78 74 
227 1 78 75 
228 1 78 78 
229 1 79 30 
230 1 79 36 
231 1 79 76 
232 1 79 79 
233 1 80 78 
234 1 80 80 
235 1 81 36 
236 1 81 79 
237 1 81 81 
238 1 82 80 
239 1 82 82 
240 1 83 80 
241 1 83 82 
242 1 83 83 
243 1 84 43 
244 1 84 50 
245 1 84 84 
246 1 85 81 
247 1 85 84 
248 1 85 85 
249 1 86 82 
250 1 86 83 
251 1 86 86 
252 1 87 44 
253 1 87 83 
254 1 87 86 
255 1 87 87 
256 1 88 49 
257 1 88 50 
258 1 88 88 
259 1 89 50 
260 1 89 84 
261 1 89 88 
262 1 89 89 
263 1 90 86 
264 1 90 87 
265 1 90 90 
266 1 91 87 
267 1 91 90 
268 1 91 91 
269 1 92 51 
270 1 92 91 
271 1 92 92 
272 1 93 51 
273 1 93 52 
274 1 93 92 
275 1 93 93 
276 1 94 52 
277 1 94 53 
278 1 94 93 
279 1 94 94 
280 1 95 53 
281 1 95 94 
282 1 95 95 
283 1 96 88 
284 1 96 95 
285 1 96 96 
286 1 97 92 
287 1 97 93 
288 1 97 97 
289 1 98 98 
290 1 99 98 
291 1 99 99 
292 1 100 99 
293 1 100 100 
294 1 101 101 
295 1 102 101 
296 1 102 102 
297 1 103 98 
298 1 103 102 
299 1 103 103 
300 1 104 54 
301 1 104 98 
302 1 104 99 
303 1 104 103 
304 1 104 104 
305 1 105 54 
306 1 105 99 
307 1 105 100 
308 1 105 104 
309 1 105 105 
310 1 106 100 
311 1 106 105 
312 1 106 106 
313 1 107 106 
314 1 107 107 
315 1 108 108 
316 1 109 108 
317 1 109 109 
318 1 110 61 
319 1 110 107 
320 1 110 110 
321 1 111 110 
322 1 111 111 
323 1 112 108 
324 1 112 112 
325 1 113 65 
326 1 113 110 
327 1 113 111 
328 1 113 113 
329 1 114 114 
330 1 115 69 
331 1 115 113 
332 1 115 115 
333 1 116 114 
334 1 116 116 
335 1 117 69 
336 1 117 71 
337 1 117 115 
338 1 117 117 
339 1 118 118 
340 1 119 116 
341 1 119 118 
342 1 119 119 
343 1 120 71 
344 1 120 73 
345 1 120 117 
346 1 120 120 
347 1 121 117 
348 1 121 120 
349 1 121 121 
350 1 122 118 
351 1 122 122 
352 1 123 74 
353 1 123 118 
354 1 123 119 
355 1 123 122 
356 1 123 123 
357 1 124 73 
358 1 124 76 
359 1 124 77 
360 1 124 120 
361 1 124 124 
362 1 125 77 
363 1 125 120 
364 1 125 121 
365 1 125 124 
366 1 125 125 
367 1 126 122 
368 1 126 126 
369 1 127 74 
370 1 127 122 
371 1 127 123 
372 1 127 126 
373 1 127 127 
374 1 128 76 
375 1 128 77 
376 1 128 79 
377 1 128 124 
378 1 128 128 
379 1 129 77 
380 1 129 124 
381 1 129 125 
382 1 129 128 
383 1 129 129 
384 1 130 126 
385 1 130 127 
386 1 130 130 
387 1 131 79 
388 1 131 81 
389 1 131 128 
390 1 131 131 
391 1 132 130 
392 1 132 132 
393 1 133 81 
394 1 133 85 
395 1 133 131 
396 1 133 133 
397 1 134 82 
398 1 134 132 
399 1 134 134 
400 1 135 84 
401 1 135 85 
402 1 135 89 
403 1 135 135 
404 1 136 134 
405 1 136 136 
406 1 137 86 
407 1 137 134 
408 1 137 136 
409 1 137 137 
410 1 138 88 
411 1 138 89 
412 1 138 96 
413 1 138 138 
414 1 139 89 
415 1 139 135 
416 1 139 138 
417 1 139 139 
418 1 140 90 
419 1 140 137 
420 1 140 140 
421 1 141 90 
422 1 141 91 
423 1 141 140 
424 1 141 141 
425 1 142 91 
426 1 142 92 
427 1 142 141 
428 1 142 142 
429 1 143 92 
430 1 143 93 
431 1 143 97 
432 1 143 142 
433 1 143 143 
434 1 144 93 
435 1 144 94 
436 1 144 97 
437 1 144 143 
438 1 144 144 
439 1 145 94 
440 1 145 95 
441 1 145 144 
442 1 145 145 
443 1 146 95 
444 1 146 96 
445 1 146 145 
446 1 146 146 
447 1 147 141 
448 1 147 142 
449 1 147 147 
450 1 148 97 
451 1 148 142 
452 1 148 143 
453 1 148 147 
454 1 148 148 
455 1 149 97 
456 1 149 143 
457 1 149 144 
458 1 149 148 
459 1 149 149 
460 1 150 150 
461 1 151 151 
462 1 152 151 
463 1 152 152 
464 1 153 98 
465 1 153 152 
466 1 153 153 
467 1 154 98 
468 1 154 99 
469 1 154 150 
470 1 154 153 
471 1 154 154 
472 1 155 99 
473 1 155 100 
474 1 155 150 
475 1 155 154 
476 1 155 155 
477 1 156 100 
478 1 156 155 
479 1 156 156 
480 1 157 156 
481 1 157 157 
482 1 158 158 
483 1 159 158 
484 1 159 159 
485 1 160 107 
486 1 160 157 
487 1 160 160 
488 1 161 160 
489 1 161 161 
490 1 162 162 
491 1 163 108 
492 1 163 158 
493 1 163 162 
494 1 163 163 
495 1 164 110 
496 1 164 111 
497 1 164 160 
498 1 164 161 
499 1 164 164 
500 1 165 111 
501 1 165 161 
502 1 165 164 
503 1 165 165 
504 1 166 162 
505 1 166 166 
506 1 167 111 
507 1 167 113 
508 1 167 164 
509 1 167 165 
510 1 167 167 
511 1 168 168 
512 1 169 115 
513 1 169 167 
514 1 169 169 
515 1 170 168 
516 1 170 170 
517 1 171 115 
518 1 171 117 
519 1 171 169 
520 1 171 171 
521 1 172 118 
522 1 172 170 
523 1 172 172 
524 1 173 117 
525 1 173 120 
526 1 173 121 
527 1 173 171 
528 1 173 173 
529 1 174 174 
530 1 175 118 
531 1 175 122 
532 1 175 172 
533 1 175 174 
534 1 175 175 
535 1 176 120 
536 1 176 121 
537 1 176 124 
538 1 176 125 
539 1 176 173 
540 1 176 176 
541 1 177 121 
542 1 177 125 
543 1 177 173 
544 1 177 176 
545 1 177 177 
546 1 178 122 
547 1 178 126 
548 1 178 174 
549 1 178 175 
550 1 178 178 
551 1 179 124 
552 1 179 125 
553 1 179 128 
554 1 179 129 
555 1 179 176 
556 1 179 179 
557 1 180 126 
558 1 180 178 
559 1 180 180 
560 1 181 128 
561 1 181 129 
562 1 181 131 
563 1 181 179 
564 1 181 181 
565 1 182 180 
566 1 182 182 
567 1 183 131 
568 1 183 133 
569 1 183 181 
570 1 183 183 
571 1 184 132 
572 1 184 182 
573 1 184 184 
574 1 185 133 
575 1 185 135 
576 1 185 185 
577 1 186 184 
578 1 186 186 
579 1 187 134 
580 1 187 136 
581 1 187 184 
582 1 187 186 
583 1 187 187 
584 1 188 135 
585 1 188 138 
586 1 188 139 
587 1 188 188 
588 1 189 135 
589 1 189 139 
590 1 189 185 
591 1 189 188 
592 1 189 189 
593 1 190 136 
594 1 190 186 
595 1 190 187 
596 1 190 190 
597 1 191 136 
598 1 191 137 
599 1 191 187 
600 1 191 190 
601 1 191 191 
602 1 192 138 
603 1 192 146 
604 1 192 192 
605 1 193 138 
606 1 193 139 
607 1 193 188 
608 1 193 192 
609 1 193 193 
610 1 194 140 
611 1 194 191 
612 1 194 194 
613 1 195 140 
614 1 195 141 
615 1 195 194 
616 1 195 195 
617 1 196 141 
618 1 196 142 
619 1 196 147 
620 1 196 195 
621 1 196 196 
622 1 197 142 
623 1 197 143 
624 1 197 147 
625 1 197 148 
626 1 197 196 
627 1 197 197 
628 1 198 143 
629 1 198 144 
630 1 198 148 
631 1 198 149 
632 1 198 197 
633 1 198 198 
634 1 199 144 
635 1 199 145 
636 1 199 149 
637 1 199 198 
638 1 199 199 
639 1 200 145 
640 1 200 146 
641 1 200 199 
642 1 200 200 
643 1 201 147 
644 1 201 148 
645 1 201 196 
646 1 201 197 
647 1 201 201 
648 1 202 202 
649 1 203 202 
650 1 203 203 
651 1 204 203 
652 1 204 204 
653 1 205 150 
654 1 205 204 
655 1 205 205 
656 1 206 150 
657 1 206 205 
658 1 206 206 
659 1 207 206 
660 1 207 207 
661 1 208 207 
662 1 208 208 
663 1 209 209 
664 1 210 209 
665 1 210 210 
666 1 211 157 
667 1 211 208 
668 1 211 211 
669 1 212 211 
670 1 212 212 
671 1 213 213 
672 1 214 158 
673 1 214 209 
674 1 214 213 
675 1 214 214 
676 1 215 160 
677 1 215 161 
678 1 215 211 
679 1 215 212 
680 1 215 215 
681 1 216 161 
682 1 216 212 
683 1 216 215 
684 1 216 216 
685 1 217 217 
686 1 218 162 
687 1 218 213 
688 1 218 217 
689 1 218 218 
690 1 219 161 
691 1 219 164 
692 1 219 165 
693 1 219 215 
694 1 219 216 
695 1 219 219 
696 1 220 165 
697 1 220 216 
698 1 220 219 
699 1 220 220 
700 1 221 217 
701 1 221 221 
702 1 222 165 
703 1 222 167 
704 1 222 219 
705 1 222 220 
706 1 222 222 
707 1 223 223 
708 1 224 169 
709 1 224 222 
710 1 224 224 
711 1 225 223 
712 1 225 225 
713 1 226 169 
714 1 226 171 
715 1 226 224 
716 1 226 226 
717 1 227 225 
718 1 227 227 
719 1 228 171 
720 1 228 173 
721 1 228 226 
722 1 228 228 
723 1 229 174 
724 1 229 227 
725 1 229 229 
726 1 230 173 
727 1 230 176 
728 1 230 177 
729 1 230 228 
730 1 230 230 
731 1 231 174 
732 1 231 229 
733 1 231 231 
734 1 232 176 
735 1 232 177 
736 1 232 179 
737 1 232 230 
738 1 232 232 
739 1 233 231 
740 1 233 233 
741 1 234 179 
742 1 234 181 
743 1 234 232 
744 1 234 234 
745 1 235 233 
746 1 235 235 
747 1 236 181 
748 1 236 183 
749 1 236 234 
750 1 236 236 
751 1 237 182 
752 1 237 235 
753 1 237 237 
754 1 238 183 
755 1 238 185 
756 1 238 238 
757 1 239 237 
758 1 239 239 
759 1 240 184 
760 1 240 186 
761 1 240 237 
762 1 240 239 
763 1 240 240 
764 1 241 185 
765 1 241 188 
766 1 241 189 
767 1 241 241 
768 1 242 185 
769 1 242 189 
770 1 242 238 
771 1 242 241 
772 1 242 242 
773 1 243 186 
774 1 243 239 
775 1 243 240 
776 1 243 243 
777 1 244 186 
778 1 244 187 
779 1 244 190 
780 1 244 240 
781 1 244 243 
782 1 244 244 
783 1 245 188 
784 1 245 192 
785 1 245 193 
786 1 245 245 
787 1 246 188 
788 1 246 189 
789 1 246 193 
790 1 246 241 
791 1 246 245 
792 1 246 246 
793 1 247 190 
794 1 247 243 
795 1 247 244 
796 1 247 247 
797 1 248 190 
798 1 248 191 
799 1 248 244 
800 1 248 247 
801 1 248 248 
802 1 249 192 
803 1 249 200 
804 1 249 249 
805 1 250 192 
806 1 250 193 
807 1 250 245 
808 1 250 249 
809 1 250 250 
810 1 251 194 
811 1 251 248 
812 1 251 251 
813 1 252 194 
814 1 252 195 
815 1 252 251 
816 1 252 252 
817 1 253 195 
818 1 253 196 
819 1 253 252 
820 1 253 253 
821 1 254 196 
822 1 254 197 
823 1 254 201 
824 1 254 253 
825 1 254 254 
826 1 255 197 
827 1 255 198 
828 1 255 201 
829 1 255 254 
830 1 255 255 
831 1 256 198 
832 1 256 199 
833 1 256 255 
834 1 256 256 
835 1 257 199 
836 1 257 200 
837 1 257 256 
838 1 257 257 
839 1 258 258 
840 1 259 258 
841 1 259 259 
842 1 260 259 
843 1 260 260 
844 1 261 261 
845 1 262 202 
846 1 262 261 
847 1 262 262 
848 1 263 207 
849 1 263 208 
850 1 263 263 
851 1 264 208 
852 1 264 263 
853 1 264 264 
854 1 265 209 
855 1 265 265 
856 1 266 211 
857 1 266 212 
858 1 266 264 
859 1 266 266 
860 1 267 213 
861 1 267 267 
862 1 268 212 
863 1 268 215 
864 1 268 216 
865 1 268 266 
866 1 268 268 
867 1 269 217 
868 1 269 269 
869 1 270 216 
870 1 270 219 
871 1 270 220 
872 1 270 268 
873 1 270 270 
874 1 271 271 
875 1 272 220 
876 1 272 222 
877 1 272 270 
878 1 272 272 
879 1 273 223 
880 1 273 271 
881 1 273 273 
882 1 274 222 
883 1 274 224 
884 1 274 272 
885 1 274 274 
886 1 275 275 
887 1 276 226 
888 1 276 228 
889 1 276 276 
890 1 277 275 
891 1 277 277 
892 1 278 228 
893 1 278 230 
894 1 278 276 
895 1 278 278 
896 1 279 277 
897 1 279 279 
898 1 280 230 
899 1 280 232 
900 1 280 278 
901 1 280 280 
902 1 281 233 
903 1 281 235 
904 1 281 281 
905 1 282 234 
906 1 282 236 
907 1 282 282 
908 1 283 235 
909 1 283 281 
910 1 283 283 
911 1 284 236 
912 1 284 238 
913 1 284 282 
914 1 284 284 
915 1 285 237 
916 1 285 239 
917 1 285 283 
918 1 285 285 
919 1 286 238 
920 1 286 241 
921 1 286 242 
922 1 286 286 
923 1 287 239 
924 1 287 240 
925 1 287 243 
926 1 287 285 
927 1 287 287 
928 1 288 241 
929 1 288 245 
930 1 288 246 
931 1 288 288 
932 1 289 243 
933 1 289 244 
934 1 289 247 
935 1 289 287 
936 1 289 289 
937 1 290 245 