test12345.data

0 atoms
1 atom types
0 bonds
1 bond types
0.0 100 xlo xhi
0.0 100 ylo yhi
0.0 100 zlo zhi

Atoms

