contreras.data

10 atoms
1 atom types
1 bond types
1 angle types
1 dihedral types
0.0 100 xlo xhi
0.0 100 ylo yhi
0.0 100 zlo zhi

Atoms

1 1 1 0 0 0 10 1 0
2 1 1 0 2 0 10 1 0
3 1 1 0 2 2 10 1 0
4 1 1 2 0 0 10 1 0
5 1 1 2 2 0 10 1 0
6 1 1 2 2 2 10 1 0
7 1 1 0 0 2 10 1 0
8 1 1 0 2 2 10 1 0
9 1 1 2 2 2 10 1 0
10 1 1 2 0 2 10 1 0
