ITEM: TIMESTEP
0
ITEM: NUMBER OF ATOMS
300
ITEM: BOX BOUNDS pp pp pp
0.0000000000000000e+00 1.0000000000000000e+02
0.0000000000000000e+00 1.0000000000000000e+02
0.0000000000000000e+00 1.0000000000000000e+02
ITEM: ATOMS id type x y z vx vy vz fx fy fz
1 1 0 0 0 0 0 0 0 0 0
2 1 10 0 0 0 0 0 0 0 0
3 1 20 0 0 0 0 0 0 0 0
4 1 30 0 0 0 0 0 0 0 0
11 1 0 10 0 0 0 0 0 0 0
12 1 10 10 0 0 0 0 0 0 0
13 1 20 10 0 0 0 0 0 0 0
14 1 30 10 0 0 0 0 0 0 0
21 1 0 20 0 0 0 0 0 0 0
22 1 10 20 0 0 0 0 0 0 0
23 1 20 20 0 0 0 0 0 0 0
24 1 30 20 0 0 0 0 0 0 0
31 1 0 30 0 0 0 0 0 0 0
32 1 10 30 0 0 0 0 0 0 0
33 1 20 30 0 0 0 0 0 0 0
34 1 30 30 0 0 0 0 0 0 0
101 1 0 0 10 0 0 0 0 0 0
102 1 10 0 10 0 0 0 0 0 0
103 1 20 0 10 0 0 0 0 0 0
104 1 30 0 10 0 0 0 0 0 0
111 1 0 10 10 0 0 0 0 0 0
112 1 10 10 10 0 0 0 0 0 0
113 1 20 10 10 0 0 0 0 0 0
114 1 30 10 10 0 0 0 0 0 0
121 1 0 20 10 0 0 0 0 0 0
122 1 10 20 10 0 0 0 0 0 0
123 1 20 20 10 0 0 0 0 0 0
124 1 30 20 10 0 0 0 0 0 0
131 1 0 30 10 0 0 0 0 0 0
132 1 10 30 10 0 0 0 0 0 0
133 1 20 30 10 0 0 0 0 0 0
134 1 30 30 10 0 0 0 0 0 0
201 1 0 0 20 0 0 0 0 0 0
202 1 10 0 20 0 0 0 0 0 0
203 1 20 0 20 0 0 0 0 0 0
204 1 30 0 20 0 0 0 0 0 0
211 1 0 10 20 0 0 0 0 0 0
212 1 10 10 20 0 0 0 0 0 0
213 1 20 10 20 0 0 0 0 0 0
214 1 30 10 20 0 0 0 0 0 0
221 1 0 20 20 0 0 0 0 0 0
222 1 10 20 20 0 0 0 0 0 0
223 1 20 20 20 0 0 0 0 0 0
224 1 30 20 20 0 0 0 0 0 0
231 1 0 30 20 0 0 0 0 0 0
232 1 10 30 20 0 0 0 0 0 0
233 1 20 30 20 0 0 0 0 0 0
234 1 30 30 20 0 0 0 0 0 0
5 1 40 0 0 0 0 0 0 0 0
6 1 50 0 0 0 0 0 0 0 0
7 1 60 0 0 0 0 0 0 0 0
15 1 40 10 0 0 0 0 0 0 0
16 1 50 10 0 0 0 0 0 0 0
17 1 60 10 0 0 0 0 0 0 0
25 1 40 20 0 0 0 0 0 0 0
26 1 50 20 0 0 0 0 0 0 0
27 1 60 20 0 0 0 0 0 0 0
35 1 40 30 0 0 0 0 0 0 0
36 1 50 30 0 0 0 0 0 0 0
37 1 60 30 0 0 0 0 0 0 0
105 1 40 0 10 0 0 0 0 0 0
106 1 50 0 10 0 0 0 0 0 0
107 1 60 0 10 0 0 0 0 0 0
115 1 40 10 10 0 0 0 0 0 0
116 1 50 10 10 0 0 0 0 0 0
117 1 60 10 10 0 0 0 0 0 0
125 1 40 20 10 0 0 0 0 0 0
126 1 50 20 10 0 0 0 0 0 0
127 1 60 20 10 0 0 0 0 0 0
135 1 40 30 10 0 0 0 0 0 0
136 1 50 30 10 0 0 0 0 0 0
137 1 60 30 10 0 0 0 0 0 0
205 1 40 0 20 0 0 0 0 0 0
206 1 50 0 20 0 0 0 0 0 0
207 1 60 0 20 0 0 0 0 0 0
215 1 40 10 20 0 0 0 0 0 0
216 1 50 10 20 0 0 0 0 0 0
217 1 60 10 20 0 0 0 0 0 0
225 1 40 20 20 0 0 0 0 0 0
226 1 50 20 20 0 0 0 0 0 0
227 1 60 20 20 0 0 0 0 0 0
235 1 40 30 20 0 0 0 0 0 0
236 1 50 30 20 0 0 0 0 0 0
237 1 60 30 20 0 0 0 0 0 0
8 1 70 0 0 0 0 0 0 0 0
9 1 80 0 0 0 0 0 0 0 0
10 1 90 0 0 0 0 0 0 0 0
18 1 70 10 0 0 0 0 0 0 0
19 1 80 10 0 0 0 0 0 0 0
20 1 90 10 0 0 0 0 0 0 0
28 1 70 20 0 0 0 0 0 0 0
29 1 80 20 0 0 0 0 0 0 0
30 1 90 20 0 0 0 0 0 0 0
38 1 70 30 0 0 0 0 0 0 0
39 1 80 30 0 0 0 0 0 0 0
40 1 90 30 0 0 0 0 0 0 0
108 1 70 0 10 0 0 0 0 0 0
109 1 80 0 10 0 0 0 0 0 0
110 1 90 0 10 0 0 0 0 0 0
118 1 70 10 10 0 0 0 0 0 0
119 1 80 10 10 0 0 0 0 0 0
120 1 90 10 10 0 0 0 0 0 0
128 1 70 20 10 0 0 0 0 0 0
129 1 80 20 10 0 0 0 0 0 0
130 1 90 20 10 0 0 0 0 0 0
138 1 70 30 10 0 0 0 0 0 0
139 1 80 30 10 0 0 0 0 0 0
140 1 90 30 10 0 0 0 0 0 0
208 1 70 0 20 0 0 0 0 0 0
209 1 80 0 20 0 0 0 0 0 0
210 1 90 0 20 0 0 0 0 0 0
218 1 70 10 20 0 0 0 0 0 0
219 1 80 10 20 0 0 0 0 0 0
220 1 90 10 20 0 0 0 0 0 0
228 1 70 20 20 0 0 0 0 0 0
229 1 80 20 20 0 0 0 0 0 0
230 1 90 20 20 0 0 0 0 0 0
238 1 70 30 20 0 0 0 0 0 0
239 1 80 30 20 0 0 0 0 0 0
240 1 90 30 20 0 0 0 0 0 0
41 1 0 40 0 0 0 0 0 0 0
42 1 10 40 0 0 0 0 0 0 0
43 1 20 40 0 0 0 0 0 0 0
44 1 30 40 0 0 0 0 0 0 0
51 1 0 50 0 0 0 0 0 0 0
52 1 10 50 0 0 0 0 0 0 0
53 1 20 50 0 0 0 0 0 0 0
54 1 30 50 0 0 0 0 0 0 0
61 1 0 60 0 0 0 0 0 0 0
62 1 10 60 0 0 0 0 0 0 0
63 1 20 60 0 0 0 0 0 0 0
64 1 30 60 0 0 0 0 0 0 0
141 1 0 40 10 0 0 0 0 0 0
142 1 10 40 10 0 0 0 0 0 0
143 1 20 40 10 0 0 0 0 0 0
144 1 30 40 10 0 0 0 0 0 0
151 1 0 50 10 0 0 0 0 0 0
152 1 10 50 10 0 0 0 0 0 0
153 1 20 50 10 0 0 0 0 0 0
154 1 30 50 10 0 0 0 0 0 0
161 1 0 60 10 0 0 0 0 0 0
162 1 10 60 10 0 0 0 0 0 0
163 1 20 60 10 0 0 0 0 0 0
164 1 30 60 10 0 0 0 0 0 0
241 1 0 40 20 0 0 0 0 0 0
242 1 10 40 20 0 0 0 0 0 0
243 1 20 40 20 0 0 0 0 0 0
244 1 30 40 20 0 0 0 0 0 0
251 1 0 50 20 0 0 0 0 0 0
252 1 10 50 20 0 0 0 0 0 0
253 1 20 50 20 0 0 0 0 0 0
254 1 30 50 20 0 0 0 0 0 0
261 1 0 60 20 0 0 0 0 0 0
262 1 10 60 20 0 0 0 0 0 0
263 1 20 60 20 0 0 0 0 0 0
264 1 30 60 20 0 0 0 0 0 0
45 1 40 40 0 0 0 0 0 0 0
46 1 50 40 0 0 0 0 0 0 0
47 1 60 40 0 0 0 0 0 0 0
55 1 40 50 0 0 0 0 0 0 0
56 1 50 50 0 0 0 0 0 0 0
57 1 60 50 0 0 0 0 0 0 0
65 1 40 60 0 0 0 0 0 0 0
66 1 50 60 0 0 0 0 0 0 0
67 1 60 60 0 0 0 0 0 0 0
145 1 40 40 10 0 0 0 0 0 0
146 1 50 40 10 0 0 0 0 0 0
147 1 60 40 10 0 0 0 0 0 0
155 1 40 50 10 0 0 0 0 0 0
156 1 50 50 10 0 0 0 0 0 0
157 1 60 50 10 0 0 0 0 0 0
165 1 40 60 10 0 0 0 0 0 0
166 1 50 60 10 0 0 0 0 0 0
167 1 60 60 10 0 0 0 0 0 0
245 1 40 40 20 0 0 0 0 0 0
246 1 50 40 20 0 0 0 0 0 0
247 1 60 40 20 0 0 0 0 0 0
255 1 40 50 20 0 0 0 0 0 0
256 1 50 50 20 0 0 0 0 0 0
257 1 60 50 20 0 0 0 0 0 0
265 1 40 60 20 0 0 0 0 0 0
266 1 50 60 20 0 0 0 0 0 0
267 1 60 60 20 0 0 0 0 0 0
48 1 70 40 0 0 0 0 0 0 0
49 1 80 40 0 0 0 0 0 0 0
50 1 90 40 0 0 0 0 0 0 0
58 1 70 50 0 0 0 0 0 0 0
59 1 80 50 0 0 0 0 0 0 0
60 1 90 50 0 0 0 0 0 0 0
68 1 70 60 0 0 0 0 0 0 0
69 1 80 60 0 0 0 0 0 0 0
70 1 90 60 0 0 0 0 0 0 0
148 1 70 40 10 0 0 0 0 0 0
149 1 80 40 10 0 0 0 0 0 0
150 1 90 40 10 0 0 0 0 0 0
158 1 70 50 10 0 0 0 0 0 0
159 1 80 50 10 0 0 0 0 0 0
160 1 90 50 10 0 0 0 0 0 0
168 1 70 60 10 0 0 0 0 0 0
169 1 80 60 10 0 0 0 0 0 0
170 1 90 60 10 0 0 0 0 0 0
248 1 70 40 20 0 0 0 0 0 0
249 1 80 40 20 0 0 0 0 0 0
250 1 90 40 20 0 0 0 0 0 0
258 1 70 50 20 0 0 0 0 0 0
259 1 80 50 20 0 0 0 0 0 0
260 1 90 50 20 0 0 0 0 0 0
268 1 70 60 20 0 0 0 0 0 0
269 1 80 60 20 0 0 0 0 0 0
270 1 90 60 20 0 0 0 0 0 0
71 1 0 70 0 0 0 0 0 0 0
72 1 10 70 0 0 0 0 0 0 0
73 1 20 70 0 0 0 0 0 0 0
74 1 30 70 0 0 0 0 0 0 0
81 1 0 80 0 0 0 0 0 0 0
82 1 10 80 0 0 0 0 0 0 0
83 1 20 80 0 0 0 0 0 0 0
84 1 30 80 0 0 0 0 0 0 0
91 1 0 90 0 0 0 0 0 0 0
92 1 10 90 0 0 0 0 0 0 0
93 1 20 90 0 0 0 0 0 0 0
94 1 30 90 0 0 0 0 0 0 0
171 1 0 70 10 0 0 0 0 0 0
172 1 10 70 10 0 0 0 0 0 0
173 1 20 70 10 0 0 0 0 0 0
174 1 30 70 10 0 0 0 0 0 0
181 1 0 80 10 0 0 0 0 0 0
182 1 10 80 10 0 0 0 0 0 0
183 1 20 80 10 0 0 0 0 0 0
184 1 30 80 10 0 0 0 0 0 0
191 1 0 90 10 0 0 0 0 0 0
192 1 10 90 10 0 0 0 0 0 0
193 1 20 90 10 0 0 0 0 0 0
194 1 30 90 10 0 0 0 0 0 0
271 1 0 70 20 0 0 0 0 0 0
272 1 10 70 20 0 0 0 0 0 0
273 1 20 70 20 0 0 0 0 0 0
274 1 30 70 20 0 0 0 0 0 0
281 1 0 80 20 0 0 0 0 0 0
282 1 10 80 20 0 0 0 0 0 0
283 1 20 80 20 0 0 0 0 0 0
284 1 30 80 20 0 0 0 0 0 0
291 1 0 90 20 0 0 0 0 0 0
292 1 10 90 20 0 0 0 0 0 0
293 1 20 90 20 0 0 0 0 0 0
294 1 30 90 20 0 0 0 0 0 0
75 1 40 70 0 0 0 0 0 0 0
76 1 50 70 0 0 0 0 0 0 0
77 1 60 70 0 0 0 0 0 0 0
85 1 40 80 0 0 0 0 0 0 0
86 1 50 80 0 0 0 0 0 0 0
87 1 60 80 0 0 0 0 0 0 0
95 1 40 90 0 0 0 0 0 0 0
96 1 50 90 0 0 0 0 0 0 0
97 1 60 90 0 0 0 0 0 0 0
175 1 40 70 10 0 0 0 0 0 0
176 1 50 70 10 0 0 0 0 0 0
177 1 60 70 10 0 0 0 0 0 0
185 1 40 80 10 0 0 0 0 0 0
186 1 50 80 10 0 0 0 0 0 0
187 1 60 80 10 0 0 0 0 0 0
195 1 40 90 10 0 0 0 0 0 0
196 1 50 90 10 0 0 0 0 0 0
197 1 60 90 10 0 0 0 0 0 0
275 1 40 70 20 0 0 0 0 0 0
276 1 50 70 20 0 0 0 0 0 0
277 1 60 70 20 0 0 0 0 0 0
285 1 40 80 20 0 0 0 0 0 0
286 1 50 80 20 0 0 0 0 0 0
287 1 60 80 20 0 0 0 0 0 0
295 1 40 90 20 0 0 0 0 0 0
296 1 50 90 20 0 0 0 0 0 0
297 1 60 90 20 0 0 0 0 0 0
78 1 70 70 0 0 0 0 0 0 0
79 1 80 70 0 0 0 0 0 0 0
80 1 90 70 0 0 0 0 0 0 0
88 1 70 80 0 0 0 0 0 0 0
89 1 80 80 0 0 0 0 0 0 0
90 1 90 80 0 0 0 0 0 0 0
98 1 70 90 0 0 0 0 0 0 0
99 1 80 90 0 0 0 0 0 0 0
100 1 90 90 0 0 0 0 0 0 0
178 1 70 70 10 0 0 0 0 0 0
179 1 80 70 10 0 0 0 0 0 0
180 1 90 70 10 0 0 0 0 0 0
188 1 70 80 10 0 0 0 0 0 0
189 1 80 80 10 0 0 0 0 0 0
190 1 90 80 10 0 0 0 0 0 0
198 1 70 90 10 0 0 0 0 0 0
199 1 80 90 10 0 0 0 0 0 0
200 1 90 90 10 0 0 0 0 0 0
278 1 70 70 20 0 0 0 0 0 0
279 1 80 70 20 0 0 0 0 0 0
280 1 90 70 20 0 0 0 0 0 0
288 1 70 80 20 0 0 0 0 0 0
289 1 80 80 20 0 0 0 0 0 0
290 1 90 80 20 0 0 0 0 0 0
298 1 70 90 20 0 0 0 0 0 0
299 1 80 90 20 0 0 0 0 0 0
300 1 90 90 20 0 0 0 0 0 0
ITEM: TIMESTEP
1
ITEM: NUMBER OF ATOMS
300
ITEM: BOX BOUNDS pp pp pp
0.0000000000000000e+00 1.0000000000000000e+02
0.0000000000000000e+00 1.0000000000000000e+02
0.0000000000000000e+00 1.0000000000000000e+02
ITEM: ATOMS id type x y z vx vy vz fx fy fz
1 1 0 0 0 0 0 0 0 0 0
2 1 10 0 0 0 0 0 0 0 0
3 1 20 0 0 0 0 0 0 0 0
4 1 30 0 0 0 0 0 0 0 0
11 1 0 10 0 0 0 0 0 0 0
12 1 10 10 0 0 0 0 0 0 0
13 1 20 10 0 0 0 0 0 0 0
14 1 30 10 0 0 0 0 0 0 0
21 1 0 20 0 0 0 0 0 0 0
22 1 10 20 0 0 0 0 0 0 0
23 1 20 20 0 0 0 0 0 0 0
24 1 30 20 0 0 0 0 0 0 0
31 1 0 30 0 0 0 0 0 0 0
32 1 10 30 0 0 0 0 0 0 0
33 1 20 30 0 0 0 0 0 0 0
34 1 30 30 0 0 0 0 0 0 0
101 1 0 0 10 0 0 0 0 0 0
102 1 10 0 10 0 0 0 0 0 0
103 1 20 0 10 0 0 0 0 0 0
104 1 30 0 10 0 0 0 0 0 0
111 1 0 10 10 0 0 0 0 0 0
112 1 10 10 10 0 0 0 0 0 0
113 1 20 10 10 0 0 0 0 0 0
114 1 30 10 10 0 0 0 0 0 0
121 1 0 20 10 0 0 0 0 0 0
122 1 10 20 10 0 0 0 0 0 0
123 1 20 20 10 0 0 0 0 0 0
124 1 30 20 10 0 0 0 0 0 0
131 1 0 30 10 0 0 0 0 0 0
132 1 10 30 10 0 0 0 0 0 0
133 1 20 30 10 0 0 0 0 0 0
134 1 30 30 10 0 0 0 0 0 0
201 1 0 0 20 0 0 0 0 0 0
202 1 10 0 20 0 0 0 0 0 0
203 1 20 0 20 0 0 0 0 0 0
204 1 30 0 20 0 0 0 0 0 0
211 1 0 10 20 0 0 0 0 0 0
212 1 10 10 20 0 0 0 0 0 0
213 1 20 10 20 0 0 0 0 0 0
214 1 30 10 20 0 0 0 0 0 0
221 1 0 20 20 0 0 0 0 0 0
222 1 10 20 20 0 0 0 0 0 0
223 1 20 20 20 0 0 0 0 0 0
224 1 30 20 20 0 0 0 0 0 0
231 1 0 30 20 0 0 0 0 0 0
232 1 10 30 20 0 0 0 0 0 0
233 1 20 30 20 0 0 0 0 0 0
234 1 30 30 20 0 0 0 0 0 0
5 1 40 0 0 0 0 0 0 0 0
6 1 50 0 0 0 0 0 0 0 0
7 1 60 0 0 0 0 0 0 0 0
15 1 40 10 0 0 0 0 0 0 0
16 1 50 10 0 0 0 0 0 0 0
17 1 60 10 0 0 0 0 0 0 0
25 1 40 20 0 0 0 0 0 0 0
26 1 50 20 0 0 0 0 0 0 0
27 1 60 20 0 0 0 0 0 0 0
35 1 40 30 0 0 0 0 0 0 0
36 1 50 30 0 0 0 0 0 0 0
37 1 60 30 0 0 0 0 0 0 0
105 1 40 0 10 0 0 0 0 0 0
106 1 50 0 10 0 0 0 0 0 0
107 1 60 0 10 0 0 0 0 0 0
115 1 40 10 10 0 0 0 0 0 0
116 1 50 10 10 0 0 0 0 0 0
117 1 60 10 10 0 0 0 0 0 0
125 1 40 20 10 0 0 0 0 0 0
126 1 50 20 10 0 0 0 0 0 0
127 1 60 20 10 0 0 0 0 0 0
135 1 40 30 10 0 0 0 0 0 0
136 1 50 30 10 0 0 0 0 0 0
137 1 60 30 10 0 0 0 0 0 0
205 1 40 0 20 0 0 0 0 0 0
206 1 50 0 20 0 0 0 0 0 0
207 1 60 0 20 0 0 0 0 0 0
215 1 40 10 20 0 0 0 0 0 0
216 1 50 10 20 0 0 0 0 0 0
217 1 60 10 20 0 0 0 0 0 0
225 1 40 20 20 0 0 0 0 0 0
226 1 50 20 20 0 0 0 0 0 0
227 1 60 20 20 0 0 0 0 0 0
235 1 40 30 20 0 0 0 0 0 0
236 1 50 30 20 0 0 0 0 0 0
237 1 60 30 20 0 0 0 0 0 0
8 1 70 0 0 0 0 0 0 0 0
9 1 80 0 0 0 0 0 0 0 0
10 1 90 0 0 0 0 0 0 0 0
18 1 70 10 0 0 0 0 0 0 0
19 1 80 10 0 0 0 0 0 0 0
20 1 90 10 0 0 0 0 0 0 0
28 1 70 20 0 0 0 0 0 0 0
29 1 80 20 0 0 0 0 0 0 0
30 1 90 20 0 0 0 0 0 0 0
38 1 70 30 0 0 0 0 0 0 0
39 1 80 30 0 0 0 0 0 0 0
40 1 90 30 0 0 0 0 0 0 0
108 1 70 0 10 0 0 0 0 0 0
109 1 80 0 10 0 0 0 0 0 0
110 1 90 0 10 0 0 0 0 0 0
118 1 70 10 10 0 0 0 0 0 0
119 1 80 10 10 0 0 0 0 0 0
120 1 90 10 10 0 0 0 0 0 0
128 1 70 20 10 0 0 0 0 0 0
129 1 80 20 10 0 0 0 0 0 0
130 1 90 20 10 0 0 0 0 0 0
138 1 70 30 10 0 0 0 0 0 0
139 1 80 30 10 0 0 0 0 0 0
140 1 90 30 10 0 0 0 0 0 0
208 1 70 0 20 0 0 0 0 0 0
209 1 80 0 20 0 0 0 0 0 0
210 1 90 0 20 0 0 0 0 0 0
218 1 70 10 20 0 0 0 0 0 0
219 1 80 10 20 0 0 0 0 0 0
220 1 90 10 20 0 0 0 0 0 0
228 1 70 20 20 0 0 0 0 0 0
229 1 80 20 20 0 0 0 0 0 0
230 1 90 20 20 0 0 0 0 0 0
238 1 70 30 20 0 0 0 0 0 0
239 1 80 30 20 0 0 0 0 0 0
240 1 90 30 20 0 0 0 0 0 0
41 1 0 40 0 0 0 0 0 0 0
42 1 10 40 0 0 0 0 0 0 0
43 1 20 40 0 0 0 0 0 0 0
44 1 30 40 0 0 0 0 0 0 0
51 1 0 50 0 0 0 0 0 0 0
52 1 10 50 0 0 0 0 0 0 0
53 1 20 50 0 0 0 0 0 0 0
54 1 30 50 0 0 0 0 0 0 0
61 1 0 60 0 0 0 0 0 0 0
62 1 10 60 0 0 0 0 0 0 0
63 1 20 60 0 0 0 0 0 0 0
64 1 30 60 0 0 0 0 0 0 0
141 1 0 40 10 0 0 0 0 0 0
142 1 10 40 10 0 0 0 0 0 0
143 1 20 40 10 0 0 0 0 0 0
144 1 30 40 10 0 0 0 0 0 0
151 1 0 50 10 0 0 0 0 0 0
152 1 10 50 10 0 0 0 0 0 0
153 1 20 50 10 0 0 0 0 0 0
154 1 30 50 10 0 0 0 0 0 0
161 1 0 60 10 0 0 0 0 0 0
162 1 10 60 10 0 0 0 0 0 0
163 1 20 60 10 0 0 0 0 0 0
164 1 30 60 10 0 0 0 0 0 0
241 1 0 40 20 0 0 0 0 0 0
242 1 10 40 20 0 0 0 0 0 0
243 1 20 40 20 0 0 0 0 0 0
244 1 30 40 20 0 0 0 0 0 0
251 1 0 50 20 0 0 0 0 0 0
252 1 10 50 20 0 0 0 0 0 0
253 1 20 50 20 0 0 0 0 0 0
254 1 30 50 20 0 0 0 0 0 0
261 1 0 60 20 0 0 0 0 0 0
262 1 10 60 20 0 0 0 0 0 0
263 1 20 60 20 0 0 0 0 0 0
264 1 30 60 20 0 0 0 0 0 0
45 1 40 40 0 0 0 0 0 0 0
46 1 50 40 0 0 0 0 0 0 0
47 1 60 40 0 0 0 0 0 0 0
55 1 40 50 0 0 0 0 0 0 0
56 1 50 50 0 0 0 0 0 0 0
57 1 60 50 0 0 0 0 0 0 0
65 1 40 60 0 0 0 0 0 0 0
66 1 50 60 0 0 0 0 0 0 0
67 1 60 60 0 0 0 0 0 0 0
145 1 40 40 10 0 0 0 0 0 0
146 1 50 40 10 0 0 0 0 0 0
147 1 60 40 10 0 0 0 0 0 0
155 1 40 50 10 0 0 0 0 0 0
156 1 50 50 10 0 0 0 0 0 0
157 1 60 50 10 0 0 0 0 0 0
165 1 40 60 10 0 0 0 0 0 0
166 1 50 60 10 0 0 0 0 0 0
167 1 60 60 10 0 0 0 0 0 0
245 1 40 40 20 0 0 0 0 0 0
246 1 50 40 20 0 0 0 0 0 0
247 1 60 40 20 0 0 0 0 0 0
255 1 40 50 20 0 0 0 0 0 0
256 1 50 50 20 0 0 0 0 0 0
257 1 60 50 20 0 0 0 0 0 0
265 1 40 60 20 0 0 0 0 0 0
266 1 50 60 20 0 0 0 0 0 0
267 1 60 60 20 0 0 0 0 0 0
48 1 70 40 0 0 0 0 0 0 0
49 1 80 40 0 0 0 0 0 0 0
50 1 90 40 0 0 0 0 0 0 0
58 1 70 50 0 0 0 0 0 0 0
59 1 80 50 0 0 0 0 0 0 0
60 1 90 50 0 0 0 0 0 0 0
68 1 70 60 0 0 0 0 0 0 0
69 1 80 60 0 0 0 0 0 0 0
70 1 90 60 0 0 0 0 0 0 0
148 1 70 40 10 0 0 0 0 0 0
149 1 80 40 10 0 0 0 0 0 0
150 1 90 40 10 0 0 0 0 0 0
158 1 70 50 10 0 0 0 0 0 0
159 1 80 50 10 0 0 0 0 0 0
160 1 90 50 10 0 0 0 0 0 0
168 1 70 60 10 0 0 0 0 0 0
169 1 80 60 10 0 0 0 0 0 0
170 1 90 60 10 0 0 0 0 0 0
248 1 70 40 20 0 0 0 0 0 0
249 1 80 40 20 0 0 0 0 0 0
250 1 90 40 20 0 0 0 0 0 0
258 1 70 50 20 0 0 0 0 0 0
259 1 80 50 20 0 0 0 0 0 0
260 1 90 50 20 0 0 0 0 0 0
268 1 70 60 20 0 0 0 0 0 0
269 1 80 60 20 0 0 0 0 0 0
270 1 90 60 20 0 0 0 0 0 0
71 1 0 70 0 0 0 0 0 0 0
72 1 10 70 0 0 0 0 0 0 0
73 1 20 70 0 0 0 0 0 0 0
74 1 30 70 0 0 0 0 0 0 0
81 1 0 80 0 0 0 0 0 0 0
82 1 10 80 0 0 0 0 0 0 0
83 1 20 80 0 0 0 0 0 0 0
84 1 30 80 0 0 0 0 0 0 0
91 1 0 90 0 0 0 0 0 0 0
92 1 10 90 0 0 0 0 0 0 0
93 1 20 90 0 0 0 0 0 0 0
94 1 30 90 0 0 0 0 0 0 0
171 1 0 70 10 0 0 0 0 0 0
172 1 10 70 10 0 0 0 0 0 0
173 1 20 70 10 0 0 0 0 0 0
174 1 30 70 10 0 0 0 0 0 0
181 1 0 80 10 0 0 0 0 0 0
182 1 10 80 10 0 0 0 0 0 0
183 1 20 80 10 0 0 0 0 0 0
184 1 30 80 10 0 0 0 0 0 0
191 1 0 90 10 0 0 0 0 0 0
192 1 10 90 10 0 0 0 0 0 0
193 1 20 90 10 0 0 0 0 0 0
194 1 30 90 10 0 0 0 0 0 0
271 1 0 70 20 0 0 0 0 0 0
272 1 10 70 20 0 0 0 0 0 0
273 1 20 70 20 0 0 0 0 0 0
274 1 30 70 20 0 0 0 0 0 0
281 1 0 80 20 0 0 0 0 0 0
282 1 10 80 20 0 0 0 0 0 0
283 1 20 80 20 0 0 0 0 0 0
284 1 30 80 20 0 0 0 0 0 0
291 1 0 90 20 0 0 0 0 0 0
292 1 10 90 20 0 0 0 0 0 0
293 1 20 90 20 0 0 0 0 0 0
294 1 30 90 20 0 0 0 0 0 0
75 1 40 70 0 0 0 0 0 0 0
76 1 50 70 0 0 0 0 0 0 0
77 1 60 70 0 0 0 0 0 0 0
85 1 40 80 0 0 0 0 0 0 0
86 1 50 80 0 0 0 0 0 0 0
87 1 60 80 0 0 0 0 0 0 0
95 1 40 90 0 0 0 0 0 0 0
96 1 50 90 0 0 0 0 0 0 0
97 1 60 90 0 0 0 0 0 0 0
175 1 40 70 10 0 0 0 0 0 0
176 1 50 70 10 0 0 0 0 0 0
177 1 60 70 10 0 0 0 0 0 0
185 1 40 80 10 0 0 0 0 0 0
186 1 50 80 10 0 0 0 0 0 0
187 1 60 80 10 0 0 0 0 0 0
195 1 40 90 10 0 0 0 0 0 0
196 1 50 90 10 0 0 0 0 0 0
197 1 60 90 10 0 0 0 0 0 0
275 1 40 70 20 0 0 0 0 0 0
276 1 50 70 20 0 0 0 0 0 0
277 1 60 70 20 0 0 0 0 0 0
285 1 40 80 20 0 0 0 0 0 0
286 1 50 80 20 0 0 0 0 0 0
287 1 60 80 20 0 0 0 0 0 0
295 1 40 90 20 0 0 0 0 0 0
296 1 50 90 20 0 0 0 0 0 0
297 1 60 90 20 0 0 0 0 0 0
78 1 70 70 0 0 0 0 0 0 0
79 1 80 70 0 0 0 0 0 0 0
80 1 90 70 0 0 0 0 0 0 0
88 1 70 80 0 0 0 0 0 0 0
89 1 80 80 0 0 0 0 0 0 0
90 1 90 80 0 0 0 0 0 0 0
98 1 70 90 0 0 0 0 0 0 0
99 1 80 90 0 0 0 0 0 0 0
100 1 90 90 0 0 0 0 0 0 0
178 1 70 70 10 0 0 0 0 0 0
179 1 80 70 10 0 0 0 0 0 0
180 1 90 70 10 0 0 0 0 0 0
188 1 70 80 10 0 0 0 0 0 0
189 1 80 80 10 0 0 0 0 0 0
190 1 90 80 10 0 0 0 0 0 0
198 1 70 90 10 0 0 0 0 0 0
199 1 80 90 10 0 0 0 0 0 0
200 1 90 90 10 0 0 0 0 0 0
278 1 70 70 20 0 0 0 0 0 0
279 1 80 70 20 0 0 0 0 0 0
280 1 90 70 20 0 0 0 0 0 0
288 1 70 80 20 0 0 0 0 0 0
289 1 80 80 20 0 0 0 0 0 0
290 1 90 80 20 0 0 0 0 0 0
298 1 70 90 20 0 0 0 0 0 0
299 1 80 90 20 0 0 0 0 0 0
300 1 90 90 20 0 0 0 0 0 0
ITEM: TIMESTEP
11
ITEM: NUMBER OF ATOMS
300
ITEM: BOX BOUNDS pp pp pp
0.0000000000000000e+00 1.0000000000000000e+02
0.0000000000000000e+00 1.0000000000000000e+02
0.0000000000000000e+00 1.0000000000000000e+02
ITEM: ATOMS id type x y z vx vy vz fx fy fz
1 1 0 0 0 0 0 0 0 0 0
2 1 10 0 0 0 0 0 0 0 0
3 1 20 0 0 0 0 0 0 0 0
4 1 30 0 0 0 0 0 0 0 0
11 1 0 10 0 0 0 0 0 0 0
12 1 10 10 0 0 0 0 0 0 0
13 1 20 10 0 0 0 0 0 0 0
14 1 30 10 0 0 0 0 0 0 0
21 1 0 20 0 0 0 0 0 0 0
22 1 10 20 0 0 0 0 0 0 0
23 1 20 20 0 0 0 0 0 0 0
24 1 30 20 0 0 0 0 0 0 0
31 1 0 30 0 0 0 0 0 0 0
32 1 10 30 0 0 0 0 0 0 0
33 1 20 30 0 0 0 0 0 0 0
34 1 30 30 0 0 0 0 0 0 0
101 1 0 0 10 0 0 0 0 0 0
102 1 10 0 10 0 0 0 0 0 0
103 1 20 0 10 0 0 0 0 0 0
104 1 30 0 10 0 0 0 0 0 0
111 1 0 10 10 0 0 0 0 0 0
112 1 10 10 10 0 0 0 0 0 0
113 1 20 10 10 0 0 0 0 0 0
114 1 30 10 10 0 0 0 0 0 0
121 1 0 20 10 0 0 0 0 0 0
122 1 10 20 10 0 0 0 0 0 0
123 1 20 20 10 0 0 0 0 0 0
124 1 30 20 10 0 0 0 0 0 0
131 1 0 30 10 0 0 0 0 0 0
132 1 10 30 10 0 0 0 0 0 0
133 1 20 30 10 0 0 0 0 0 0
134 1 30 30 10 0 0 0 0 0 0
201 1 0 0 20 0 0 0 0 0 0
202 1 10 0 20 0 0 0 0 0 0
203 1 20 0 20 0 0 0 0 0 0
204 1 30 0 20 0 0 0 0 0 0
211 1 0 10 20 0 0 0 0 0 0
212 1 10 10 20 0 0 0 0 0 0
213 1 20 10 20 0 0 0 0 0 0
214 1 30 10 20 0 0 0 0 0 0
221 1 0 20 20 0 0 0 0 0 0
222 1 10 20 20 0 0 0 0 0 0
223 1 20 20 20 0 0 0 0 0 0
224 1 30 20 20 0 0 0 0 0 0
231 1 0 30 20 0 0 0 0 0 0
232 1 10 30 20 0 0 0 0 0 0
233 1 20 30 20 0 0 0 0 0 0
234 1 30 30 20 0 0 0 0 0 0
5 1 40 0 0 0 0 0 0 0 0
6 1 50 0 0 0 0 0 0 0 0
7 1 60 0 0 0 0 0 0 0 0
15 1 40 10 0 0 0 0 0 0 0
16 1 50 10 0 0 0 0 0 0 0
17 1 60 10 0 0 0 0 0 0 0
25 1 40 20 0 0 0 0 0 0 0
26 1 50 20 0 0 0 0 0 0 0
27 1 60 20 0 0 0 0 0 0 0
35 1 40 30 0 0 0 0 0 0 0
36 1 50 30 0 0 0 0 0 0 0
37 1 60 30 0 0 0 0 0 0 0
105 1 40 0 10 0 0 0 0 0 0
106 1 50 0 10 0 0 0 0 0 0
107 1 60 0 10 0 0 0 0 0 0
115 1 40 10 10 0 0 0 0 0 0
116 1 50 10 10 0 0 0 0 0 0
117 1 60 10 10 0 0 0 0 0 0
125 1 40 20 10 0 0 0 0 0 0
126 1 50 20 10 0 0 0 0 0 0
127 1 60 20 10 0 0 0 0 0 0
135 1 40 30 10 0 0 0 0 0 0
136 1 50 30 10 0 0 0 0 0 0
137 1 60 30 10 0 0 0 0 0 0
205 1 40 0 20 0 0 0 0 0 0
206 1 50 0 20 0 0 0 0 0 0
207 1 60 0 20 0 0 0 0 0 0
215 1 40 10 20 0 0 0 0 0 0
216 1 50 10 20 0 0 0 0 0 0
217 1 60 10 20 0 0 0 0 0 0
225 1 40 20 20 0 0 0 0 0 0
226 1 50 20 20 0 0 0 0 0 0
227 1 60 20 20 0 0 0 0 0 0
235 1 40 30 20 0 0 0 0 0 0
236 1 50 30 20 0 0 0 0 0 0
237 1 60 30 20 0 0 0 0 0 0
8 1 70 0 0 0 0 0 0 0 0
9 1 80 0 0 0 0 0 0 0 0
10 1 90 0 0 0 0 0 0 0 0
18 1 70 10 0 0 0 0 0 0 0
19 1 80 10 0 0 0 0 0 0 0
20 1 90 10 0 0 0 0 0 0 0
28 1 70 20 0 0 0 0 0 0 0
29 1 80 20 0 0 0 0 0 0 0
30 1 90 20 0 0 0 0 0 0 0
38 1 70 30 0 0 0 0 0 0 0
39 1 80 30 0 0 0 0 0 0 0
40 1 90 30 0 0 0 0 0 0 0
108 1 70 0 10 0 0 0 0 0 0
109 1 80 0 10 0 0 0 0 0 0
110 1 90 0 10 0 0 0 0 0 0
118 1 70 10 10 0 0 0 0 0 0
119 1 80 10 10 0 0 0 0 0 0
120 1 90 10 10 0 0 0 0 0 0
128 1 70 20 10 0 0 0 0 0 0
129 1 80 20 10 0 0 0 0 0 0
130 1 90 20 10 0 0 0 0 0 0
138 1 70 30 10 0 0 0 0 0 0
139 1 80 30 10 0 0 0 0 0 0
140 1 90 30 10 0 0 0 0 0 0
208 1 70 0 20 0 0 0 0 0 0
209 1 80 0 20 0 0 0 0 0 0
210 1 90 0 20 0 0 0 0 0 0
218 1 70 10 20 0 0 0 0 0 0
219 1 80 10 20 0 0 0 0 0 0
220 1 90 10 20 0 0 0 0 0 0
228 1 70 20 20 0 0 0 0 0 0
229 1 80 20 20 0 0 0 0 0 0
230 1 90 20 20 0 0 0 0 0 0
238 1 70 30 20 0 0 0 0 0 0
239 1 80 30 20 0 0 0 0 0 0
240 1 90 30 20 0 0 0 0 0 0
41 1 0 40 0 0 0 0 0 0 0
42 1 10 40 0 0 0 0 0 0 0
43 1 20 40 0 0 0 0 0 0 0
44 1 30 40 0 0 0 0 0 0 0
51 1 0 50 0 0 0 0 0 0 0
52 1 10 50 0 0 0 0 0 0 0
53 1 20 50 0 0 0 0 0 0 0
54 1 30 50 0 0 0 0 0 0 0
61 1 0 60 0 0 0 0 0 0 0
62 1 10 60 0 0 0 0 0 0 0
63 1 20 60 0 0 0 0 0 0 0
64 1 30 60 0 0 0 0 0 0 0
141 1 0 40 10 0 0 0 0 0 0
142 1 10 40 10 0 0 0 0 0 0
143 1 20 40 10 0 0 0 0 0 0
144 1 30 40 10 0 0 0 0 0 0
151 1 0 50 10 0 0 0 0 0 0
152 1 10 50 10 0 0 0 0 0 0
153 1 20 50 10 0 0 0 0 0 0
154 1 30 50 10 0 0 0 0 0 0
161 1 0 60 10 0 0 0 0 0 0
162 1 10 60 10 0 0 0 0 0 0
163 1 20 60 10 0 0 0 0 0 0
164 1 30 60 10 0 0 0 0 0 0
241 1 0 40 20 0 0 0 0 0 0
242 1 10 40 20 0 0 0 0 0 0
243 1 20 40 20 0 0 0 0 0 0
244 1 30 40 20 0 0 0 0 0 0
251 1 0 50 20 0 0 0 0 0 0
252 1 10 50 20 0 0 0 0 0 0
253 1 20 50 20 0 0 0 0 0 0
254 1 30 50 20 0 0 0 0 0 0
261 1 0 60 20 0 0 0 0 0 0
262 1 10 60 20 0 0 0 0 0 0
263 1 20 60 20 0 0 0 0 0 0
264 1 30 60 20 0 0 0 0 0 0
45 1 40 40 0 0 0 0 0 0 0
46 1 50 40 0 0 0 0 0 0 0
47 1 60 40 0 0 0 0 0 0 0
55 1 40 50 0 0 0 0 0 0 0
56 1 50 50 0 0 0 0 0 0 0
57 1 60 50 0 0 0 0 0 0 0
65 1 40 60 0 0 0 0 0 0 0
66 1 50 60 0 0 0 0 0 0 0
67 1 60 60 0 0 0 0 0 0 0
145 1 40 40 10 0 0 0 0 0 0
146 1 50 40 10 0 0 0 0 0 0
147 1 60 40 10 0 0 0 0 0 0
155 1 40 50 10 0 0 0 0 0 0
156 1 50 50 10 0 0 0 0 0 0
157 1 60 50 10 0 0 0 0 0 0
165 1 40 60 10 0 0 0 0 0 0
166 1 50 60 10 0 0 0 0 0 0
167 1 60 60 10 0 0 0 0 0 0
245 1 40 40 20 0 0 0 0 0 0
246 1 50 40 20 0 0 0 0 0 0
247 1 60 40 20 0 0 0 0 0 0
255 1 40 50 20 0 0 0 0 0 0
256 1 50 50 20 0 0 0 0 0 0
257 1 60 50 20 0 0 0 0 0 0
265 1 40 60 20 0 0 0 0 0 0
266 1 50 60 20 0 0 0 0 0 0
267 1 60 60 20 0 0 0 0 0 0
48 1 70 40 0 0 0 0 0 0 0
49 1 80 40 0 0 0 0 0 0 0
50 1 90 40 0 0 0 0 0 0 0
58 1 70 50 0 0 0 0 0 0 0
59 1 80 50 0 0 0 0 0 0 0
60 1 90 50 0 0 0 0 0 0 0
68 1 70 60 0 0 0 0 0 0 0
69 1 80 60 0 0 0 0 0 0 0
70 1 90 60 0 0 0 0 0 0 0
148 1 70 40 10 0 0 0 0 0 0
149 1 80 40 10 0 0 0 0 0 0
150 1 90 40 10 0 0 0 0 0 0
158 1 70 50 10 0 0 0 0 0 0
159 1 80 50 10 0 0 0 0 0 0
160 1 90 50 10 0 0 0 0 0 0
168 1 70 60 10 0 0 0 0 0 0
169 1 80 60 10 0 0 0 0 0 0
170 1 90 60 10 0 0 0 0 0 0
248 1 70 40 20 0 0 0 0 0 0
249 1 80 40 20 0 0 0 0 0 0
250 1 90 40 20 0 0 0 0 0 0
258 1 70 50 20 0 0 0 0 0 0
259 1 80 50 20 0 0 0 0 0 0
260 1 90 50 20 0 0 0 0 0 0
268 1 70 60 20 0 0 0 0 0 0
269 1 80 60 20 0 0 0 0 0 0
270 1 90 60 20 0 0 0 0 0 0
71 1 0 70 0 0 0 0 0 0 0
72 1 10 70 0 0 0 0 0 0 0
73 1 20 70 0 0 0 0 0 0 0
74 1 30 70 0 0 0 0 0 0 0
81 1 0 80 0 0 0 0 0 0 0
82 1 10 80 0 0 0 0 0 0 0
83 1 20 80 0 0 0 0 0 0 0
84 1 30 80 0 0 0 0 0 0 0
91 1 0 90 0 0 0 0 0 0 0
92 1 10 90 0 0 0 0 0 0 0
93 1 20 90 0 0 0 0 0 0 0
94 1 30 90 0 0 0 0 0 0 0
171 1 0 70 10 0 0 0 0 0 0
172 1 10 70 10 0 0 0 0 0 0
173 1 20 70 10 0 0 0 0 0 0
174 1 30 70 10 0 0 0 0 0 0
181 1 0 80 10 0 0 0 0 0 0
182 1 10 80 10 0 0 0 0 0 0
183 1 20 80 10 0 0 0 0 0 0
184 1 30 80 10 0 0 0 0 0 0
191 1 0 90 10 0 0 0 0 0 0
192 1 10 90 10 0 0 0 0 0 0
193 1 20 90 10 0 0 0 0 0 0
194 1 30 90 10 0 0 0 0 0 0
271 1 0 70 20 0 0 0 0 0 0
272 1 10 70 20 0 0 0 0 0 0
273 1 20 70 20 0 0 0 0 0 0
274 1 30 70 20 0 0 0 0 0 0
281 1 0 80 20 0 0 0 0 0 0
282 1 10 80 20 0 0 0 0 0 0
283 1 20 80 20 0 0 0 0 0 0
284 1 30 80 20 0 0 0 0 0 0
291 1 0 90 20 0 0 0 0 0 0
292 1 10 90 20 0 0 0 0 0 0
293 1 20 90 20 0 0 0 0 0 0
294 1 30 90 20 0 0 0 0 0 0
75 1 40 70 0 0 0 0 0 0 0
76 1 50 70 0 0 0 0 0 0 0
77 1 60 70 0 0 0 0 0 0 0
85 1 40 80 0 0 0 0 0 0 0
86 1 50 80 0 0 0 0 0 0 0
87 1 60 80 0 0 0 0 0 0 0
95 1 40 90 0 0 0 0 0 0 0
96 1 50 90 0 0 0 0 0 0 0
97 1 60 90 0 0 0 0 0 0 0
175 1 40 70 10 0 0 0 0 0 0
176 1 50 70 10 0 0 0 0 0 0
177 1 60 70 10 0 0 0 0 0 0
185 1 40 80 10 0 0 0 0 0 0
186 1 50 80 10 0 0 0 0 0 0
187 1 60 80 10 0 0 0 0 0 0
195 1 40 90 10 0 0 0 0 0 0
196 1 50 90 10 0 0 0 0 0 0
197 1 60 90 10 0 0 0 0 0 0
275 1 40 70 20 0 0 0 0 0 0
276 1 50 70 20 0 0 0 0 0 0
277 1 60 70 20 0 0 0 0 0 0
285 1 40 80 20 0 0 0 0 0 0
286 1 50 80 20 0 0 0 0 0 0
287 1 60 80 20 0 0 0 0 0 0
295 1 40 90 20 0 0 0 0 0 0
296 1 50 90 20 0 0 0 0 0 0
297 1 60 90 20 0 0 0 0 0 0
78 1 70 70 0 0 0 0 0 0 0
79 1 80 70 0 0 0 0 0 0 0
80 1 90 70 0 0 0 0 0 0 0
88 1 70 80 0 0 0 0 0 0 0
89 1 80 80 0 0 0 0 0 0 0
90 1 90 80 0 0 0 0 0 0 0
98 1 70 90 0 0 0 0 0 0 0
99 1 80 90 0 0 0 0 0 0 0
100 1 90 90 0 0 0 0 0 0 0
178 1 70 70 10 0 0 0 0 0 0
179 1 80 70 10 0 0 0 0 0 0
180 1 90 70 10 0 0 0 0 0 0
188 1 70 80 10 0 0 0 0 0 0
189 1 80 80 10 0 0 0 0 0 0
190 1 90 80 10 0 0 0 0 0 0
198 1 70 90 10 0 0 0 0 0 0
199 1 80 90 10 0 0 0 0 0 0
200 1 90 90 10 0 0 0 0 0 0
278 1 70 70 20 0 0 0 0 0 0
279 1 80 70 20 0 0 0 0 0 0
280 1 90 70 20 0 0 0 0 0 0
288 1 70 80 20 0 0 0 0 0 0
289 1 80 80 20 0 0 0 0 0 0
290 1 90 80 20 0 0 0 0 0 0
298 1 70 90 20 0 0 0 0 0 0
299 1 80 90 20 0 0 0 0 0 0
300 1 90 90 20 0 0 0 0 0 0
ITEM: TIMESTEP
21
ITEM: NUMBER OF ATOMS
300
ITEM: BOX BOUNDS pp pp pp
0.0000000000000000e+00 1.0000000000000000e+02
0.0000000000000000e+00 1.0000000000000000e+02
0.0000000000000000e+00 1.0000000000000000e+02
ITEM: ATOMS id type x y z vx vy vz fx fy fz
1 1 0 0 0 0 0 0 0 0 0
2 1 10 0 0 0 0 0 0 0 0
3 1 20 0 0 0 0 0 0 0 0
4 1 30 0 0 0 0 0 0 0 0
11 1 0 10 0 0 0 0 0 0 0
12 1 10 10 0 0 0 0 0 0 0
13 1 20 10 0 0 0 0 0 0 0
14 1 30 10 0 0 0 0 0 0 0
21 1 0 20 0 0 0 0 0 0 0
22 1 10 20 0 0 0 0 0 0 0
23 1 20 20 0 0 0 0 0 0 0
24 1 30 20 0 0 0 0 0 0 0
31 1 0 30 0 0 0 0 0 0 0
32 1 10 30 0 0 0 0 0 0 0
33 1 20 30 0 0 0 0 0 0 0
34 1 30 30 0 0 0 0 0 0 0
101 1 0 0 10 0 0 0 0 0 0
102 1 10 0 10 0 0 0 0 0 0
103 1 20 0 10 0 0 0 0 0 0
104 1 30 0 10 0 0 0 0 0 0
111 1 0 10 10 0 0 0 0 0 0
112 1 10 10 10 0 0 0 0 0 0
113 1 20 10 10 0 0 0 0 0 0
114 1 30 10 10 0 0 0 0 0 0
121 1 0 20 10 0 0 0 0 0 0
122 1 10 20 10 0 0 0 0 0 0
123 1 20 20 10 0 0 0 0 0 0
124 1 30 20 10 0 0 0 0 0 0
131 1 0 30 10 0 0 0 0 0 0
132 1 10 30 10 0 0 0 0 0 0
133 1 20 30 10 0 0 0 0 0 0
134 1 30 30 10 0 0 0 0 0 0
201 1 0 0 20 0 0 0 0 0 0
202 1 10 0 20 0 0 0 0 0 0
203 1 20 0 20 0 0 0 0 0 0
204 1 30 0 20 0 0 0 0 0 0
211 1 0 10 20 0 0 0 0 0 0
212 1 10 10 20 0 0 0 0 0 0
213 1 20 10 20 0 0 0 0 0 0
214 1 30 10 20 0 0 0 0 0 0
221 1 0 20 20 0 0 0 0 0 0
222 1 10 20 20 0 0 0 0 0 0
223 1 20 20 20 0 0 0 0 0 0
224 1 30 20 20 0 0 0 0 0 0
231 1 0 30 20 0 0 0 0 0 0
232 1 10 30 20 0 0 0 0 0 0
233 1 20 30 20 0 0 0 0 0 0
234 1 30 30 20 0 0 0 0 0 0
5 1 40 0 0 0 0 0 0 0 0
6 1 50 0 0 0 0 0 0 0 0
7 1 60 0 0 0 0 0 0 0 0
15 1 40 10 0 0 0 0 0 0 0
16 1 50 10 0 0 0 0 0 0 0
17 1 60 10 0 0 0 0 0 0 0
25 1 40 20 0 0 0 0 0 0 0
26 1 50 20 0 0 0 0 0 0 0
27 1 60 20 0 0 0 0 0 0 0
35 1 40 30 0 0 0 0 0 0 0
36 1 50 30 0 0 0 0 0 0 0
37 1 60 30 0 0 0 0 0 0 0
105 1 40 0 10 0 0 0 0 0 0
106 1 50 0 10 0 0 0 0 0 0
107 1 60 0 10 0 0 0 0 0 0
115 1 40 10 10 0 0 0 0 0 0
116 1 50 10 10 0 0 0 0 0 0
117 1 60 10 10 0 0 0 0 0 0
125 1 40 20 10 0 0 0 0 0 0
126 1 50 20 10 0 0 0 0 0 0
127 1 60 20 10 0 0 0 0 0 0
135 1 40 30 10 0 0 0 0 0 0
136 1 50 30 10 0 0 0 0 0 0
137 1 60 30 10 0 0 0 0 0 0
205 1 40 0 20 0 0 0 0 0 0
206 1 50 0 20 0 0 0 0 0 0
207 1 60 0 20 0 0 0 0 0 0
215 1 40 10 20 0 0 0 0 0 0
216 1 50 10 20 0 0 0 0 0 0
217 1 60 10 20 0 0 0 0 0 0
225 1 40 20 20 0 0 0 0 0 0
226 1 50 20 20 0 0 0 0 0 0
227 1 60 20 20 0 0 0 0 0 0
235 1 40 30 20 0 0 0 0 0 0
236 1 50 30 20 0 0 0 0 0 0
237 1 60 30 20 0 0 0 0 0 0
8 1 70 0 0 0 0 0 0 0 0
9 1 80 0 0 0 0 0 0 0 0
10 1 90 0 0 0 0 0 0 0 0
18 1 70 10 0 0 0 0 0 0 0
19 1 80 10 0 0 0 0 0 0 0
20 1 90 10 0 0 0 0 0 0 0
28 1 70 20 0 0 0 0 0 0 0
29 1 80 20 0 0 0 0 0 0 0
30 1 90 20 0 0 0 0 0 0 0
38 1 70 30 0 0 0 0 0 0 0
39 1 80 30 0 0 0 0 0 0 0
40 1 90 30 0 0 0 0 0 0 0
108 1 70 0 10 0 0 0 0 0 0
109 1 80 0 10 0 0 0 0 0 0
110 1 90 0 10 0 0 0 0 0 0
118 1 70 10 10 0 0 0 0 0 0
119 1 80 10 10 0 0 0 0 0 0
120 1 90 10 10 0 0 0 0 0 0
128 1 70 20 10 0 0 0 0 0 0
129 1 80 20 10 0 0 0 0 0 0
130 1 90 20 10 0 0 0 0 0 0
138 1 70 30 10 0 0 0 0 0 0
139 1 80 30 10 0 0 0 0 0 0
140 1 90 30 10 0 0 0 0 0 0
208 1 70 0 20 0 0 0 0 0 0
209 1 80 0 20 0 0 0 0 0 0
210 1 90 0 20 0 0 0 0 0 0
218 1 70 10 20 0 0 0 0 0 0
219 1 80 10 20 0 0 0 0 0 0
220 1 90 10 20 0 0 0 0 0 0
228 1 70 20 20 0 0 0 0 0 0
229 1 80 20 20 0 0 0 0 0 0
230 1 90 20 20 0 0 0 0 0 0
238 1 70 30 20 0 0 0 0 0 0
239 1 80 30 20 0 0 0 0 0 0
240 1 90 30 20 0 0 0 0 0 0
41 1 0 40 0 0 0 0 0 0 0
42 1 10 40 0 0 0 0 0 0 0
43 1 20 40 0 0 0 0 0 0 0
44 1 30 40 0 0 0 0 0 0 0
51 1 0 50 0 0 0 0 0 0 0
52 1 10 50 0 0 0 0 0 0 0
53 1 20 50 0 0 0 0 0 0 0
54 1 30 50 0 0 0 0 0 0 0
61 1 0 60 0 0 0 0 0 0 0
62 1 10 60 0 0 0 0 0 0 0
63 1 20 60 0 0 0 0 0 0 0
64 1 30 60 0 0 0 0 0 0 0
141 1 0 40 10 0 0 0 0 0 0
142 1 10 40 10 0 0 0 0 0 0
143 1 20 40 10 0 0 0 0 0 0
144 1 30 40 10 0 0 0 0 0 0
151 1 0 50 10 0 0 0 0 0 0
152 1 10 50 10 0 0 0 0 0 0
153 1 20 50 10 0 0 0 0 0 0
154 1 30 50 10 0 0 0 0 0 0
161 1 0 60 10 0 0 0 0 0 0
162 1 10 60 10 0 0 0 0 0 0
163 1 20 60 10 0 0 0 0 0 0
164 1 30 60 10 0 0 0 0 0 0
241 1 0 40 20 0 0 0 0 0 0
242 1 10 40 20 0 0 0 0 0 0
243 1 20 40 20 0 0 0 0 0 0
244 1 30 40 20 0 0 0 0 0 0
251 1 0 50 20 0 0 0 0 0 0
252 1 10 50 20 0 0 0 0 0 0
253 1 20 50 20 0 0 0 0 0 0
254 1 30 50 20 0 0 0 0 0 0
261 1 0 60 20 0 0 0 0 0 0
262 1 10 60 20 0 0 0 0 0 0
263 1 20 60 20 0 0 0 0 0 0
264 1 30 60 20 0 0 0 0 0 0
45 1 40 40 0 0 0 0 0 0 0
46 1 50 40 0 0 0 0 0 0 0
47 1 60 40 0 0 0 0 0 0 0
55 1 40 50 0 0 0 0 0 0 0
56 1 50 50 0 0 0 0 0 0 0
57 1 60 50 0 0 0 0 0 0 0
65 1 40 60 0 0 0 0 0 0 0
66 1 50 60 0 0 0 0 0 0 0
67 1 60 60 0 0 0 0 0 0 0
145 1 40 40 10 0 0 0 0 0 0
146 1 50 40 10 0 0 0 0 0 0
147 1 60 40 10 0 0 0 0 0 0
155 1 40 50 10 0 0 0 0 0 0
156 1 50 50 10 0 0 0 0 0 0
157 1 60 50 10 0 0 0 0 0 0
165 1 40 60 10 0 0 0 0 0 0
166 1 50 60 10 0 0 0 0 0 0
167 1 60 60 10 0 0 0 0 0 0
245 1 40 40 20 0 0 0 0 0 0
246 1 50 40 20 0 0 0 0 0 0
247 1 60 40 20 0 0 0 0 0 0
255 1 40 50 20 0 0 0 0 0 0
256 1 50 50 20 0 0 0 0 0 0
257 1 60 50 20 0 0 0 0 0 0
265 1 40 60 20 0 0 0 0 0 0
266 1 50 60 20 0 0 0 0 0 0
267 1 60 60 20 0 0 0 0 0 0
48 1 70 40 0 0 0 0 0 0 0
49 1 80 40 0 0 0 0 0 0 0
50 1 90 40 0 0 0 0 0 0 0
58 1 70 50 0 0 0 0 0 0 0
59 1 80 50 0 0 0 0 0 0 0
60 1 90 50 0 0 0 0 0 0 0
68 1 70 60 0 0 0 0 0 0 0
69 1 80 60 0 0 0 0 0 0 0
70 1 90 60 0 0 0 0 0 0 0
148 1 70 40 10 0 0 0 0 0 0
149 1 80 40 10 0 0 0 0 0 0
150 1 90 40 10 0 0 0 0 0 0
158 1 70 50 10 0 0 0 0 0 0
159 1 80 50 10 0 0 0 0 0 0
160 1 90 50 10 0 0 0 0 0 0
168 1 70 60 10 0 0 0 0 0 0
169 1 80 60 10 0 0 0 0 0 0
170 1 90 60 10 0 0 0 0 0 0
248 1 70 40 20 0 0 0 0 0 0
249 1 80 40 20 0 0 0 0 0 0
250 1 90 40 20 0 0 0 0 0 0
258 1 70 50 20 0 0 0 0 0 0
259 1 80 50 20 0 0 0 0 0 0
260 1 90 50 20 0 0 0 0 0 0
268 1 70 60 20 0 0 0 0 0 0
269 1 80 60 20 0 0 0 0 0 0
270 1 90 60 20 0 0 0 0 0 0
71 1 0 70 0 0 0 0 0 0 0