ITEM: TIMESTEP
0
ITEM: NUMBER OF ATOMS
8316
ITEM: BOX BOUNDS fs fs fs
-1.0000000000000000e+01 1.1251100000000000e+02
-1.0000000000000000e+01 1.0001100000000000e+02
-5.0000000000000000e+00 5.5100499999999997e+01
ITEM: ATOMS id type x y z vx vy vz fx fy fz
1 1 0 0 5 0 0 0 0 0 0
2 1 5 0 5 0 0 0 0 0 0
3 1 10 0 5 0 0 0 0 0 0
4 1 15 0 5 0 0 0 0 0 0
5 1 20 0 5 0 0 0 0 0 0
6 1 25 0 5 0 0 0 0 0 0
7 1 30 0 5 0 0 0 0 0 0
8 1 35 0 5 0 0 0 0 0 0
9 1 40 0 5 0 0 0 0 0 0
10 1 45 0 5 0 0 0 0 0 0
11 1 50 0 5 0 0 0 0 0 0
12 1 55 0 5 0 0 0 0 0 0
13 1 60 0 5 0 0 0 0 0 0
14 1 65 0 5 0 0 0 0 0 0
15 1 70 0 5 0 0 0 0 0 0
16 1 75 0 5 0 0 0 0 0 0
17 1 80 0 5 0 0 0 0 0 0
18 1 85 0 5 0 0 0 0 0 0
19 1 90 0 5 0 0 0 0 0 0
20 1 95 0 5 0 0 0 0 0 0
21 1 100 0 5 0 0 0 0 0 0
22 1 0 5 5 0 0 0 0 0 0
23 1 5 5 5 0 0 0 0 0 0
24 1 10 5 5 0 0 0 0 0 0
25 1 15 5 5 0 0 0 0 0 0
26 1 20 5 5 0 0 0 0 0 0
27 1 25 5 5 0 0 0 0 0 0
28 1 30 5 5 0 0 0 0 0 0
29 1 35 5 5 0 0 0 0 0 0
30 1 40 5 5 0 0 0 0 0 0
31 1 45 5 5 0 0 0 0 0 0
32 1 50 5 5 0 0 0 0 0 0
33 1 55 5 5 0 0 0 0 0 0
34 1 60 5 5 0 0 0 0 0 0
35 1 65 5 5 0 0 0 0 0 0
36 1 70 5 5 0 0 0 0 0 0
37 1 75 5 5 0 0 0 0 0 0
38 1 80 5 5 0 0 0 0 0 0
39 1 85 5 5 0 0 0 0 0 0
40 1 90 5 5 0 0 0 0 0 0
41 1 95 5 5 0 0 0 0 0 0
42 1 100 5 5 0 0 0 0 0 0
43 1 0 10 5 0 0 0 0 0 0
44 1 5 10 5 0 0 0 0 0 0
45 1 10 10 5 0 0 0 0 0 0
46 1 15 10 5 0 0 0 0 0 0
47 1 20 10 5 0 0 0 0 0 0
48 1 25 10 5 0 0 0 0 0 0
49 1 30 10 5 0 0 0 0 0 0
50 1 35 10 5 0 0 0 0 0 0
51 1 40 10 5 0 0 0 0 0 0
52 1 45 10 5 0 0 0 0 0 0
53 1 50 10 5 0 0 0 0 0 0
54 1 55 10 5 0 0 0 0 0 0
55 1 60 10 5 0 0 0 0 0 0
56 1 65 10 5 0 0 0 0 0 0
57 1 70 10 5 0 0 0 0 0 0
58 1 75 10 5 0 0 0 0 0 0
59 1 80 10 5 0 0 0 0 0 0
60 1 85 10 5 0 0 0 0 0 0
61 1 90 10 5 0 0 0 0 0 0
62 1 95 10 5 0 0 0 0 0 0
63 1 100 10 5 0 0 0 0 0 0
64 1 0 15 5 0 0 0 0 0 0
65 1 5 15 5 0 0 0 0 0 0
66 1 10 15 5 0 0 0 0 0 0
67 1 15 15 5 0 0 0 0 0 0
68 1 20 15 5 0 0 0 0 0 0
69 1 25 15 5 0 0 0 0 0 0
70 1 30 15 5 0 0 0 0 0 0
71 1 35 15 5 0 0 0 0 0 0
72 1 40 15 5 0 0 0 0 0 0
73 1 45 15 5 0 0 0 0 0 0
74 1 50 15 5 0 0 0 0 0 0
75 1 55 15 5 0 0 0 0 0 0
76 1 60 15 5 0 0 0 0 0 0
77 1 65 15 5 0 0 0 0 0 0
78 1 70 15 5 0 0 0 0 0 0
79 1 75 15 5 0 0 0 0 0 0
80 1 80 15 5 0 0 0 0 0 0
81 1 85 15 5 0 0 0 0 0 0
82 1 90 15 5 0 0 0 0 0 0
83 1 95 15 5 0 0 0 0 0 0
84 1 100 15 5 0 0 0 0 0 0
85 1 0 20 5 0 0 0 0 0 0
86 1 5 20 5 0 0 0 0 0 0
87 1 10 20 5 0 0 0 0 0 0
88 1 15 20 5 0 0 0 0 0 0
89 1 20 20 5 0 0 0 0 0 0
90 1 25 20 5 0 0 0 0 0 0
91 1 30 20 5 0 0 0 0 0 0
92 1 35 20 5 0 0 0 0 0 0
93 1 40 20 5 0 0 0 0 0 0
94 1 45 20 5 0 0 0 0 0 0
95 1 50 20 5 0 0 0 0 0 0
96 1 55 20 5 0 0 0 0 0 0
97 1 60 20 5 0 0 0 0 0 0
98 1 65 20 5 0 0 0 0 0 0
99 1 70 20 5 0 0 0 0 0 0
100 1 75 20 5 0 0 0 0 0 0
101 1 80 20 5 0 0 0 0 0 0
102 1 85 20 5 0 0 0 0 0 0
103 1 90 20 5 0 0 0 0 0 0
104 1 95 20 5 0 0 0 0 0 0
105 1 100 20 5 0 0 0 0 0 0
106 1 0 25 5 0 0 0 0 0 0
107 1 5 25 5 0 0 0 0 0 0
108 1 10 25 5 0 0 0 0 0 0
109 1 15 25 5 0 0 0 0 0 0
110 1 20 25 5 0 0 0 0 0 0
111 1 25 25 5 0 0 0 0 0 0
112 1 30 25 5 0 0 0 0 0 0
113 1 35 25 5 0 0 0 0 0 0
114 1 40 25 5 0 0 0 0 0 0
115 1 45 25 5 0 0 0 0 0 0
116 1 50 25 5 0 0 0 0 0 0
117 1 55 25 5 0 0 0 0 0 0
118 1 60 25 5 0 0 0 0 0 0
119 1 65 25 5 0 0 0 0 0 0
120 1 70 25 5 0 0 0 0 0 0
121 1 75 25 5 0 0 0 0 0 0
122 1 80 25 5 0 0 0 0 0 0
123 1 85 25 5 0 0 0 0 0 0
124 1 90 25 5 0 0 0 0 0 0
125 1 95 25 5 0 0 0 0 0 0
126 1 100 25 5 0 0 0 0 0 0
127 1 0 30 5 0 0 0 0 0 0
128 1 5 30 5 0 0 0 0 0 0
129 1 10 30 5 0 0 0 0 0 0
130 1 15 30 5 0 0 0 0 0 0
131 1 20 30 5 0 0 0 0 0 0
132 1 25 30 5 0 0 0 0 0 0
133 1 30 30 5 0 0 0 0 0 0
134 1 35 30 5 0 0 0 0 0 0
135 1 40 30 5 0 0 0 0 0 0
136 1 45 30 5 0 0 0 0 0 0
137 1 50 30 5 0 0 0 0 0 0
138 1 55 30 5 0 0 0 0 0 0
139 1 60 30 5 0 0 0 0 0 0
140 1 65 30 5 0 0 0 0 0 0
141 1 70 30 5 0 0 0 0 0 0
142 1 75 30 5 0 0 0 0 0 0
143 1 80 30 5 0 0 0 0 0 0
144 1 85 30 5 0 0 0 0 0 0
145 1 90 30 5 0 0 0 0 0 0
146 1 95 30 5 0 0 0 0 0 0
147 1 100 30 5 0 0 0 0 0 0
148 1 0 35 5 0 0 0 0 0 0
149 1 5 35 5 0 0 0 0 0 0
150 1 10 35 5 0 0 0 0 0 0
151 1 15 35 5 0 0 0 0 0 0
152 1 20 35 5 0 0 0 0 0 0
153 1 25 35 5 0 0 0 0 0 0
154 1 30 35 5 0 0 0 0 0 0
155 1 35 35 5 0 0 0 0 0 0
156 1 40 35 5 0 0 0 0 0 0
157 1 45 35 5 0 0 0 0 0 0
158 1 50 35 5 0 0 0 0 0 0
159 1 55 35 5 0 0 0 0 0 0
160 1 60 35 5 0 0 0 0 0 0
161 1 65 35 5 0 0 0 0 0 0
162 1 70 35 5 0 0 0 0 0 0
163 1 75 35 5 0 0 0 0 0 0
164 1 80 35 5 0 0 0 0 0 0
165 1 85 35 5 0 0 0 0 0 0
166 1 90 35 5 0 0 0 0 0 0
167 1 95 35 5 0 0 0 0 0 0
168 1 100 35 5 0 0 0 0 0 0
169 1 0 40 5 0 0 0 0 0 0
170 1 5 40 5 0 0 0 0 0 0
171 1 10 40 5 0 0 0 0 0 0
172 1 15 40 5 0 0 0 0 0 0
173 1 20 40 5 0 0 0 0 0 0
174 1 25 40 5 0 0 0 0 0 0
175 1 30 40 5 0 0 0 0 0 0
176 1 35 40 5 0 0 0 0 0 0
177 1 40 40 5 0 0 0 0 0 0
178 1 45 40 5 0 0 0 0 0 0
179 1 50 40 5 0 0 0 0 0 0
180 1 55 40 5 0 0 0 0 0 0
181 1 60 40 5 0 0 0 0 0 0
182 1 65 40 5 0 0 0 0 0 0
183 1 70 40 5 0 0 0 0 0 0
184 1 75 40 5 0 0 0 0 0 0
185 1 80 40 5 0 0 0 0 0 0
186 1 85 40 5 0 0 0 0 0 0
187 1 90 40 5 0 0 0 0 0 0
188 1 95 40 5 0 0 0 0 0 0
189 1 100 40 5 0 0 0 0 0 0
190 1 0 45 5 0 0 0 0 0 0
191 1 5 45 5 0 0 0 0 0 0
192 1 10 45 5 0 0 0 0 0 0
193 1 15 45 5 0 0 0 0 0 0
194 1 20 45 5 0 0 0 0 0 0
195 1 25 45 5 0 0 0 0 0 0
196 1 30 45 5 0 0 0 0 0 0
197 1 35 45 5 0 0 0 0 0 0
198 1 40 45 5 0 0 0 0 0 0
199 1 45 45 5 0 0 0 0 0 0
200 1 50 45 5 0 0 0 0 0 0
201 1 55 45 5 0 0 0 0 0 0
202 1 60 45 5 0 0 0 0 0 0
203 1 65 45 5 0 0 0 0 0 0
204 1 70 45 5 0 0 0 0 0 0
205 1 75 45 5 0 0 0 0 0 0
206 1 80 45 5 0 0 0 0 0 0
207 1 85 45 5 0 0 0 0 0 0
208 1 90 45 5 0 0 0 0 0 0
209 1 95 45 5 0 0 0 0 0 0
210 1 100 45 5 0 0 0 0 0 0
211 1 0 50 5 0 0 0 0 0 0
212 1 5 50 5 0 0 0 0 0 0
213 1 10 50 5 0 0 0 0 0 0
214 1 15 50 5 0 0 0 0 0 0
215 1 20 50 5 0 0 0 0 0 0
216 1 25 50 5 0 0 0 0 0 0
217 1 30 50 5 0 0 0 0 0 0
218 1 35 50 5 0 0 0 0 0 0
219 1 40 50 5 0 0 0 0 0 0
220 1 45 50 5 0 0 0 0 0 0
221 1 50 50 5 0 0 0 0 0 0
222 1 55 50 5 0 0 0 0 0 0
223 1 60 50 5 0 0 0 0 0 0
224 1 65 50 5 0 0 0 0 0 0
225 1 70 50 5 0 0 0 0 0 0
226 1 75 50 5 0 0 0 0 0 0
227 1 80 50 5 0 0 0 0 0 0
228 1 85 50 5 0 0 0 0 0 0
229 1 90 50 5 0 0 0 0 0 0
230 1 95 50 5 0 0 0 0 0 0
231 1 100 50 5 0 0 0 0 0 0
232 1 0 55 5 0 0 0 0 0 0
233 1 5 55 5 0 0 0 0 0 0
234 1 10 55 5 0 0 0 0 0 0
235 1 15 55 5 0 0 0 0 0 0
236 1 20 55 5 0 0 0 0 0 0
237 1 25 55 5 0 0 0 0 0 0
238 1 30 55 5 0 0 0 0 0 0
239 1 35 55 5 0 0 0 0 0 0
240 1 40 55 5 0 0 0 0 0 0
241 1 45 55 5 0 0 0 0 0 0
242 1 50 55 5 0 0 0 0 0 0
243 1 55 55 5 0 0 0 0 0 0
244 1 60 55 5 0 0 0 0 0 0
245 1 65 55 5 0 0 0 0 0 0
246 1 70 55 5 0 0 0 0 0 0
247 1 75 55 5 0 0 0 0 0 0
248 1 80 55 5 0 0 0 0 0 0
249 1 85 55 5 0 0 0 0 0 0
250 1 90 55 5 0 0 0 0 0 0
251 1 95 55 5 0 0 0 0 0 0
252 1 100 55 5 0 0 0 0 0 0
253 1 0 60 5 0 0 0 0 0 0
254 1 5 60 5 0 0 0 0 0 0
255 1 10 60 5 0 0 0 0 0 0
256 1 15 60 5 0 0 0 0 0 0
257 1 20 60 5 0 0 0 0 0 0
258 1 25 60 5 0 0 0 0 0 0
259 1 30 60 5 0 0 0 0 0 0
260 1 35 60 5 0 0 0 0 0 0
261 1 40 60 5 0 0 0 0 0 0
262 1 45 60 5 0 0 0 0 0 0
263 1 50 60 5 0 0 0 0 0 0
264 1 55 60 5 0 0 0 0 0 0
265 1 60 60 5 0 0 0 0 0 0
266 1 65 60 5 0 0 0 0 0 0
267 1 70 60 5 0 0 0 0 0 0
268 1 75 60 5 0 0 0 0 0 0
269 1 80 60 5 0 0 0 0 0 0
270 1 85 60 5 0 0 0 0 0 0
271 1 90 60 5 0 0 0 0 0 0
272 1 95 60 5 0 0 0 0 0 0
273 1 100 60 5 0 0 0 0 0 0
274 1 0 65 5 0 0 0 0 0 0
275 1 5 65 5 0 0 0 0 0 0
276 1 10 65 5 0 0 0 0 0 0
277 1 15 65 5 0 0 0 0 0 0
278 1 20 65 5 0 0 0 0 0 0
279 1 25 65 5 0 0 0 0 0 0
280 1 30 65 5 0 0 0 0 0 0
281 1 35 65 5 0 0 0 0 0 0
282 1 40 65 5 0 0 0 0 0 0
283 1 45 65 5 0 0 0 0 0 0
284 1 50 65 5 0 0 0 0 0 0
285 1 55 65 5 0 0 0 0 0 0
286 1 60 65 5 0 0 0 0 0 0
287 1 65 65 5 0 0 0 0 0 0
288 1 70 65 5 0 0 0 0 0 0
289 1 75 65 5 0 0 0 0 0 0
290 1 80 65 5 0 0 0 0 0 0
291 1 85 65 5 0 0 0 0 0 0
292 1 90 65 5 0 0 0 0 0 0
293 1 95 65 5 0 0 0 0 0 0
294 1 100 65 5 0 0 0 0 0 0
295 1 0 70 5 0 0 0 0 0 0
296 1 5 70 5 0 0 0 0 0 0
297 1 10 70 5 0 0 0 0 0 0
298 1 15 70 5 0 0 0 0 0 0
299 1 20 70 5 0 0 0 0 0 0
300 1 25 70 5 0 0 0 0 0 0
301 1 30 70 5 0 0 0 0 0 0
302 1 35 70 5 0 0 0 0 0 0
303 1 40 70 5 0 0 0 0 0 0
304 1 45 70 5 0 0 0 0 0 0
305 1 50 70 5 0 0 0 0 0 0
306 1 55 70 5 0 0 0 0 0 0
307 1 60 70 5 0 0 0 0 0 0
308 1 65 70 5 0 0 0 0 0 0
309 1 70 70 5 0 0 0 0 0 0
310 1 75 70 5 0 0 0 0 0 0
311 1 80 70 5 0 0 0 0 0 0
312 1 85 70 5 0 0 0 0 0 0
313 1 90 70 5 0 0 0 0 0 0
314 1 95 70 5 0 0 0 0 0 0
315 1 100 70 5 0 0 0 0 0 0
316 1 0 75 5 0 0 0 0 0 0
317 1 5 75 5 0 0 0 0 0 0
318 1 10 75 5 0 0 0 0 0 0
319 1 15 75 5 0 0 0 0 0 0
320 1 20 75 5 0 0 0 0 0 0
321 1 25 75 5 0 0 0 0 0 0
322 1 30 75 5 0 0 0 0 0 0
323 1 35 75 5 0 0 0 0 0 0
324 1 40 75 5 0 0 0 0 0 0
325 1 45 75 5 0 0 0 0 0 0
326 1 50 75 5 0 0 0 0 0 0
327 1 55 75 5 0 0 0 0 0 0
328 1 60 75 5 0 0 0 0 0 0
329 1 65 75 5 0 0 0 0 0 0
330 1 70 75 5 0 0 0 0 0 0
331 1 75 75 5 0 0 0 0 0 0
332 1 80 75 5 0 0 0 0 0 0
333 1 85 75 5 0 0 0 0 0 0
334 1 90 75 5 0 0 0 0 0 0
335 1 95 75 5 0 0 0 0 0 0
336 1 100 75 5 0 0 0 0 0 0
337 1 0 80 5 0 0 0 0 0 0
338 1 5 80 5 0 0 0 0 0 0
339 1 10 80 5 0 0 0 0 0 0
340 1 15 80 5 0 0 0 0 0 0
341 1 20 80 5 0 0 0 0 0 0
342 1 25 80 5 0 0 0 0 0 0
343 1 30 80 5 0 0 0 0 0 0
344 1 35 80 5 0 0 0 0 0 0
345 1 40 80 5 0 0 0 0 0 0
346 1 45 80 5 0 0 0 0 0 0
347 1 50 80 5 0 0 0 0 0 0
348 1 55 80 5 0 0 0 0 0 0
349 1 60 80 5 0 0 0 0 0 0
350 1 65 80 5 0 0 0 0 0 0
351 1 70 80 5 0 0 0 0 0 0
352 1 75 80 5 0 0 0 0 0 0
353 1 80 80 5 0 0 0 0 0 0
354 1 85 80 5 0 0 0 0 0 0
355 1 90 80 5 0 0 0 0 0 0
356 1 95 80 5 0 0 0 0 0 0
357 1 100 80 5 0 0 0 0 0 0
358 1 0 85 5 0 0 0 0 0 0
359 1 5 85 5 0 0 0 0 0 0
360 1 10 85 5 0 0 0 0 0 0
361 1 15 85 5 0 0 0 0 0 0
362 1 20 85 5 0 0 0 0 0 0
363 1 25 85 5 0 0 0 0 0 0
364 1 30 85 5 0 0 0 0 0 0
365 1 35 85 5 0 0 0 0 0 0
366 1 40 85 5 0 0 0 0 0 0
367 1 45 85 5 0 0 0 0 0 0
368 1 50 85 5 0 0 0 0 0 0
369 1 55 85 5 0 0 0 0 0 0
370 1 60 85 5 0 0 0 0 0 0
371 1 65 85 5 0 0 0 0 0 0
372 1 70 85 5 0 0 0 0 0 0
373 1 75 85 5 0 0 0 0 0 0
374 1 80 85 5 0 0 0 0 0 0
375 1 85 85 5 0 0 0 0 0 0
376 1 90 85 5 0 0 0 0 0 0
377 1 95 85 5 0 0 0 0 0 0
378 1 100 85 5 0 0 0 0 0 0
379 1 0 90 5 0 0 0 0 0 0
380 1 5 90 5 0 0 0 0 0 0
381 1 10 90 5 0 0 0 0 0 0
382 1 15 90 5 0 0 0 0 0 0
383 1 20 90 5 0 0 0 0 0 0
384 1 25 90 5 0 0 0 0 0 0
385 1 30 90 5 0 0 0 0 0 0
386 1 35 90 5 0 0 0 0 0 0
387 1 40 90 5 0 0 0 0 0 0
388 1 45 90 5 0 0 0 0 0 0
389 1 50 90 5 0 0 0 0 0 0
390 1 55 90 5 0 0 0 0 0 0
391 1 60 90 5 0 0 0 0 0 0
392 1 65 90 5 0 0 0 0 0 0
393 1 70 90 5 0 0 0 0 0 0
394 1 75 90 5 0 0 0 0 0 0
395 1 80 90 5 0 0 0 0 0 0
396 1 85 90 5 0 0 0 0 0 0
397 1 90 90 5 0 0 0 0 0 0
398 1 95 90 5 0 0 0 0 0 0
399 1 100 90 5 0 0 0 0 0 0
400 1 0 95 5 0 0 0 0 0 0
421 1 0 100 5 0 0 0 0 0 0
401 1 5 95 5 0 0 0 0 0 0
422 1 5 100 5 0 0 0 0 0 0
402 1 10 95 5 0 0 0 0 0 0
423 1 10 100 5 0 0 0 0 0 0
403 1 15 95 5 0 0 0 0 0 0
424 1 15 100 5 0 0 0 0 0 0
404 1 20 95 5 0 0 0 0 0 0
425 1 20 100 5 0 0 0 0 0 0
405 1 25 95 5 0 0 0 0 0 0
426 1 25 100 5 0 0 0 0 0 0
406 1 30 95 5 0 0 0 0 0 0
427 1 30 100 5 0 0 0 0 0 0
407 1 35 95 5 0 0 0 0 0 0
428 1 35 100 5 0 0 0 0 0 0
408 1 40 95 5 0 0 0 0 0 0
429 1 40 100 5 0 0 0 0 0 0
409 1 45 95 5 0 0 0 0 0 0
430 1 45 100 5 0 0 0 0 0 0
410 1 50 95 5 0 0 0 0 0 0
431 1 50 100 5 0 0 0 0 0 0
411 1 55 95 5 0 0 0 0 0 0
432 1 55 100 5 0 0 0 0 0 0
412 1 60 95 5 0 0 0 0 0 0
433 1 60 100 5 0 0 0 0 0 0
413 1 65 95 5 0 0 0 0 0 0
434 1 65 100 5 0 0 0 0 0 0
414 1 70 95 5 0 0 0 0 0 0
435 1 70 100 5 0 0 0 0 0 0
415 1 75 95 5 0 0 0 0 0 0
436 1 75 100 5 0 0 0 0 0 0
416 1 80 95 5 0 0 0 0 0 0
437 1 80 100 5 0 0 0 0 0 0
417 1 85 95 5 0 0 0 0 0 0
438 1 85 100 5 0 0 0 0 0 0
418 1 90 95 5 0 0 0 0 0 0
439 1 90 100 5 0 0 0 0 0 0
419 1 95 95 5 0 0 0 0 0 0
440 1 95 100 5 0 0 0 0 0 0
420 1 100 95 5 0 0 0 0 0 0
441 1 100 100 5 0 0 0 0 0 0
442 2 0 0 15 0 0 0 -2.78742e+67 -3.59643e+40 -3.59643e+40
443 2 5 0 15 0 0 0 -6.11362e+10 -7.19287e+40 -7.19287e+40
3970 3 2.5 0 15 0 0 0 -6.11362e+10 -7.19287e+40 -7.19287e+40
444 2 10 0 15 0 0 0 -6.11362e+10 -7.19287e+40 -7.19287e+40
3971 3 7.5 0 15 0 0 0 -6.11362e+10 -7.19287e+40 -7.19287e+40
445 2 15 0 15 0 0 0 -6.11362e+10 -7.19287e+40 -7.19287e+40
3972 3 12.5 0 15 0 0 0 -6.11362e+10 -7.19287e+40 -7.19287e+40
446 2 20 0 15 0 0 0 -6.11362e+10 -7.19287e+40 -7.19287e+40
3973 3 17.5 0 15 0 0 0 -6.11362e+10 -7.19287e+40 -7.19287e+40
447 2 25 0 15 0 0 0 -6.11362e+10 -7.19287e+40 -7.19287e+40
3974 3 22.5 0 15 0 0 0 -6.11362e+10 -7.19287e+40 -7.19287e+40
448 2 30 0 15 0 0 0 -6.11362e+10 -7.19287e+40 -7.19287e+40
3975 3 27.5 0 15 0 0 0 -6.11362e+10 -7.19287e+40 -7.19287e+40
449 2 35 0 15 0 0 0 -6.11362e+10 -7.19287e+40 -7.19287e+40
3976 3 32.5 0 15 0 0 0 -6.11362e+10 -7.19287e+40 -7.19287e+40
450 2 40 0 15 0 0 0 -6.11362e+10 -7.19287e+40 -7.19287e+40
3977 3 37.5 0 15 0 0 0 -6.11362e+10 -7.19287e+40 -7.19287e+40
451 2 45 0 15 0 0 0 -6.11362e+10 -7.19287e+40 -7.19287e+40
3978 3 42.5 0 15 0 0 0 -6.11362e+10 -7.19287e+40 -7.19287e+40
452 2 50 0 15 0 0 0 -6.11362e+10 -7.19287e+40 -7.19287e+40
3979 3 47.5 0 15 0 0 0 -6.11362e+10 -7.19287e+40 -7.19287e+40
453 2 55 0 15 0 0 0 -6.11362e+10 -7.19287e+40 -7.19287e+40
3980 3 52.5 0 15 0 0 0 -6.11362e+10 -7.19287e+40 -7.19287e+40
454 2 60 0 15 0 0 0 -6.11362e+10 -7.19287e+40 -7.19287e+40
3981 3 57.5 0 15 0 0 0 -6.11362e+10 -7.19287e+40 -7.19287e+40
455 2 65 0 15 0 0 0 -6.11362e+10 -7.19287e+40 -7.19287e+40
3982 3 62.5 0 15 0 0 0 -6.11362e+10 -7.19287e+40 -7.19287e+40
456 2 70 0 15 0 0 0 -6.11362e+10 -7.19287e+40 -7.19287e+40
3983 3 67.5 0 15 0 0 0 -6.11362e+10 -7.19287e+40 -7.19287e+40
457 2 75 0 15 0 0 0 -6.11362e+10 -7.19287e+40 -7.19287e+40
3984 3 72.5 0 15 0 0 0 -6.11362e+10 -7.19287e+40 -7.19287e+40
458 2 80 0 15 0 0 0 -6.11362e+10 -7.19287e+40 -7.19287e+40
3985 3 77.5 0 15 0 0 0 -6.11362e+10 -7.19287e+40 -7.19287e+40
459 2 85 0 15 0 0 0 -6.11362e+10 -7.19287e+40 -7.19287e+40
3986 3 82.5 0 15 0 0 0 -6.11362e+10 -7.19287e+40 -7.19287e+40
460 2 90 0 15 0 0 0 -6.11362e+10 -7.19287e+40 -7.19287e+40
3987 3 87.5 0 15 0 0 0 -6.11362e+10 -7.19287e+40 -7.19287e+40
461 2 95 0 15 0 0 0 -6.11362e+10 -7.19287e+40 -7.19287e+40
3988 3 92.5 0 15 0 0 0 -6.11362e+10 -7.19287e+40 -7.19287e+40
462 2 100 0 15 0 0 0 -6.11362e+10 -7.19287e+40 -7.19287e+40
3989 3 97.5 0 15 0 0 0 0 -7.19287e+40 -7.19287e+40
3990 3 102.5 0 15 0 0 0 2.78742e+67 -3.59643e+40 -3.59643e+40
3991 3 107.5 0 15 0 0 0 1.03694e+24 -4.07766e+10 -4.07766e+10
3992 3 112.5 0 15 0 0 0 0 0 0
463 2 0 5 15 0 0 0 -2.78742e+67 -4.08022e+10 -3.59643e+40
464 2 5 5 15 0 0 0 -6.11362e+10 -4.08022e+10 -7.19287e+40
3993 3 2.5 5 15 0 0 0 -6.11362e+10 -4.08022e+10 -7.19287e+40
465 2 10 5 15 0 0 0 -6.11362e+10 -4.08022e+10 -7.19287e+40
3994 3 7.5 5 15 0 0 0 -6.11362e+10 -4.08022e+10 -7.19287e+40
466 2 15 5 15 0 0 0 -6.11362e+10 -4.08022e+10 -7.19287e+40
3995 3 12.5 5 15 0 0 0 -6.11362e+10 -4.08022e+10 -7.19287e+40
467 2 20 5 15 0 0 0 -6.11362e+10 -4.08022e+10 -7.19287e+40
3996 3 17.5 5 15 0 0 0 -6.11362e+10 -4.08022e+10 -7.19287e+40
468 2 25 5 15 0 0 0 -6.11362e+10 -4.08022e+10 -7.19287e+40
3997 3 22.5 5 15 0 0 0 -6.11362e+10 -4.08022e+10 -7.19287e+40
469 2 30 5 15 0 0 0 -6.11362e+10 -4.08022e+10 -7.19287e+40
3998 3 27.5 5 15 0 0 0 -6.11362e+10 -4.08022e+10 -7.19287e+40
470 2 35 5 15 0 0 0 -6.11362e+10 -4.08022e+10 -7.19287e+40
3999 3 32.5 5 15 0 0 0 -6.11362e+10 -4.08022e+10 -7.19287e+40
471 2 40 5 15 0 0 0 -6.11362e+10 -4.08022e+10 -7.19287e+40
4000 3 37.5 5 15 0 0 0 -6.11362e+10 -4.08022e+10 -7.19287e+40
472 2 45 5 15 0 0 0 -6.11362e+10 -4.08022e+10 -7.19287e+40
4001 3 42.5 5 15 0 0 0 -6.11362e+10 -4.08022e+10 -7.19287e+40
473 2 50 5 15 0 0 0 -6.11362e+10 -4.08022e+10 -7.19287e+40
4002 3 47.5 5 15 0 0 0 -6.11362e+10 -4.08022e+10 -7.19287e+40
474 2 55 5 15 0 0 0 -6.11362e+10 -4.08022e+10 -7.19287e+40
4003 3 52.5 5 15 0 0 0 -6.11362e+10 -4.08022e+10 -7.19287e+40
475 2 60 5 15 0 0 0 -6.11362e+10 -4.08022e+10 -7.19287e+40
4004 3 57.5 5 15 0 0 0 -6.11362e+10 -4.08022e+10 -7.19287e+40
476 2 65 5 15 0 0 0 -6.11362e+10 -4.08022e+10 -7.19287e+40
4005 3 62.5 5 15 0 0 0 -6.11362e+10 -4.08022e+10 -7.19287e+40
477 2 70 5 15 0 0 0 -6.11362e+10 -4.08022e+10 -7.19287e+40
4006 3 67.5 5 15 0 0 0 -6.11362e+10 -4.08022e+10 -7.19287e+40
478 2 75 5 15 0 0 0 -6.11362e+10 -4.08022e+10 -7.19287e+40
4007 3 72.5 5 15 0 0 0 -6.11362e+10 -4.08022e+10 -7.19287e+40
479 2 80 5 15 0 0 0 -6.11362e+10 -4.08022e+10 -7.19287e+40
4008 3 77.5 5 15 0 0 0 -6.11362e+10 -4.08022e+10 -7.19287e+40
480 2 85 5 15 0 0 0 -6.11362e+10 -4.08022e+10 -7.19287e+40
4009 3 82.5 5 15 0 0 0 -6.11362e+10 -4.08022e+10 -7.19287e+40
481 2 90 5 15 0 0 0 -6.11362e+10 -4.08022e+10 -7.19287e+40
4010 3 87.5 5 15 0 0 0 -6.11362e+10 -4.08022e+10 -7.19287e+40
482 2 95 5 15 0 0 0 -6.11362e+10 -4.08022e+10 -7.19287e+40
4011 3 92.5 5 15 0 0 0 -6.11362e+10 -4.08022e+10 -7.19287e+40
483 2 100 5 15 0 0 0 -6.11362e+10 -4.08022e+10 -7.19287e+40
4012 3 97.5 5 15 0 0 0 0 0 -7.19287e+40
4013 3 102.5 5 15 0 0 0 2.78742e+67 0 -3.59643e+40
4014 3 107.5 5 15 0 0 0 1.03694e+24 0 -4.07766e+10
4015 3 112.5 5 15 0 0 0 0 0 0
484 2 0 10 15 0 0 0 -2.78742e+67 -4.08022e+10 -3.59643e+40
485 2 5 10 15 0 0 0 -6.11362e+10 -4.08022e+10 -7.19287e+40
4016 3 2.5 10 15 0 0 0 -6.11362e+10 -4.08022e+10 -7.19287e+40
486 2 10 10 15 0 0 0 -6.11362e+10 -4.08022e+10 -7.19287e+40
4017 3 7.5 10 15 0 0 0 -6.11362e+10 -4.08022e+10 -7.19287e+40
487 2 15 10 15 0 0 0 -6.11362e+10 -4.08022e+10 -7.19287e+40
4018 3 12.5 10 15 0 0 0 -6.11362e+10 -4.08022e+10 -7.19287e+40
488 2 20 10 15 0 0 0 -6.11362e+10 -4.08022e+10 -7.19287e+40
4019 3 17.5 10 15 0 0 0 -6.11362e+10 -4.08022e+10 -7.19287e+40
489 2 25 10 15 0 0 0 -6.11362e+10 -4.08022e+10 -7.19287e+40
4020 3 22.5 10 15 0 0 0 -6.11362e+10 -4.08022e+10 -7.19287e+40
490 2 30 10 15 0 0 0 -6.11362e+10 -4.08022e+10 -7.19287e+40
4021 3 27.5 10 15 0 0 0 -6.11362e+10 -4.08022e+10 -7.19287e+40
491 2 35 10 15 0 0 0 -6.11362e+10 -4.08022e+10 -7.19287e+40
4022 3 32.5 10 15 0 0 0 -6.11362e+10 -4.08022e+10 -7.19287e+40
492 2 40 10 15 0 0 0 -6.11362e+10 -4.08022e+10 -7.19287e+40
4023 3 37.5 10 15 0 0 0 -6.11362e+10 -4.08022e+10 -7.19287e+40
493 2 45 10 15 0 0 0 -6.11362e+10 -4.08022e+10 -7.19287e+40
4024 3 42.5 10 15 0 0 0 -6.11362e+10 -4.08022e+10 -7.19287e+40
494 2 50 10 15 0 0 0 -6.11362e+10 -4.08022e+10 -7.19287e+40
4025 3 47.5 10 15 0 0 0 -6.11362e+10 -4.08022e+10 -7.19287e+40
495 2 55 10 15 0 0 0 -6.11362e+10 -4.08022e+10 -7.19287e+40
4026 3 52.5 10 15 0 0 0 -6.11362e+10 -4.08022e+10 -7.19287e+40
496 2 60 10 15 0 0 0 -6.11362e+10 -4.08022e+10 -7.19287e+40
4027 3 57.5 10 15 0 0 0 -6.11362e+10 -4.08022e+10 -7.19287e+40
497 2 65 10 15 0 0 0 -6.11362e+10 -4.08022e+10 -7.19287e+40
4028 3 62.5 10 15 0 0 0 -6.11362e+10 -4.08022e+10 -7.19287e+40
498 2 70 10 15 0 0 0 -6.11362e+10 -4.08022e+10 -7.19287e+40
4029 3 67.5 10 15 0 0 0 -6.11362e+10 -4.08022e+10 -7.19287e+40
499 2 75 10 15 0 0 0 -6.11362e+10 -4.08022e+10 -7.19287e+40
4030 3 72.5 10 15 0 0 0 -6.11362e+10 -4.08022e+10 -7.19287e+40
500 2 80 10 15 0 0 0 -6.11362e+10 -4.08022e+10 -7.19287e+40
4031 3 77.5 10 15 0 0 0 -6.11362e+10 -4.08022e+10 -7.19287e+40
501 2 85 10 15 0 0 0 -6.11362e+10 -4.08022e+10 -7.19287e+40
4032 3 82.5 10 15 0 0 0 -6.11362e+10 -4.08022e+10 -7.19287e+40
502 2 90 10 15 0 0 0 -6.11362e+10 -4.08022e+10 -7.19287e+40
4033 3 87.5 10 15 0 0 0 -6.11362e+10 -4.08022e+10 -7.19287e+40
503 2 95 10 15 0 0 0 -6.11362e+10 -4.08022e+10 -7.19287e+40
4034 3 92.5 10 15 0 0 0 -6.11362e+10 -4.08022e+10 -7.19287e+40
504 2 100 10 15 0 0 0 -6.11362e+10 -4.08022e+10 -7.19287e+40
4035 3 97.5 10 15 0 0 0 0 0 -7.19287e+40
4036 3 102.5 10 15 0 0 0 2.78742e+67 0 -3.59643e+40
4037 3 107.5 10 15 0 0 0 1.03694e+24 0 -4.07766e+10
4038 3 112.5 10 15 0 0 0 0 0 0
505 2 0 15 15 0 0 0 -2.78742e+67 -4.08022e+10 -3.59643e+40
506 2 5 15 15 0 0 0 -6.11362e+10 -4.08022e+10 -7.19287e+40
4039 3 2.5 15 15 0 0 0 -6.11362e+10 -4.08022e+10 -7.19287e+40
507 2 10 15 15 0 0 0 -6.11362e+10 -4.08022e+10 -7.19287e+40
4040 3 7.5 15 15 0 0 0 -6.11362e+10 -4.08022e+10 -7.19287e+40
508 2 15 15 15 0 0 0 -6.11362e+10 -4.08022e+10 -7.19287e+40
4041 3 12.5 15 15 0 0 0 -6.11362e+10 -4.08022e+10 -7.19287e+40
509 2 20 15 15 0 0 0 -6.11362e+10 -4.08022e+10 -7.19287e+40
4042 3 17.5 15 15 0 0 0 -6.11362e+10 -4.08022e+10 -7.19287e+40
510 2 25 15 15 0 0 0 -6.11362e+10 -4.08022e+10 -7.19287e+40
4043 3 22.5 15 15 0 0 0 -6.11362e+10 -4.08022e+10 -7.19287e+40
511 2 30 15 15 0 0 0 -6.11362e+10 -4.08022e+10 -7.19287e+40
4044 3 27.5 15 15 0 0 0 -6.11362e+10 -4.08022e+10 -7.19287e+40
512 2 35 15 15 0 0 0 -6.11362e+10 -4.08022e+10 -7.19287e+40
4045 3 32.5 15 15 0 0 0 -6.11362e+10 -4.08022e+10 -7.19287e+40
513 2 40 15 15 0 0 0 -6.11362e+10 -4.08022e+10 -7.19287e+40
4046 3 37.5 15 15 0 0 0 -6.11362e+10 -4.08022e+10 -7.19287e+40
514 2 45 15 15 0 0 0 -6.11362e+10 -4.08022e+10 -7.19287e+40
4047 3 42.5 15 15 0 0 0 -6.11362e+10 -4.08022e+10 -7.19287e+40
515 2 50 15 15 0 0 0 -6.11362e+10 -4.08022e+10 -7.19287e+40
4048 3 47.5 15 15 0 0 0 -6.11362e+10 -4.08022e+10 -7.19287e+40
516 2 55 15 15 0 0 0 -6.11362e+10 -4.08022e+10 -7.19287e+40
4049 3 52.5 15 15 0 0 0 -6.11362e+10 -4.08022e+10 -7.19287e+40
517 2 60 15 15 0 0 0 -6.11362e+10 -4.08022e+10 -7.19287e+40
4050 3 57.5 15 15 0 0 0 -6.11362e+10 -4.08022e+10 -7.19287e+40
518 2 65 15 15 0 0 0 -6.11362e+10 -4.08022e+10 -7.19287e+40
4051 3 62.5 15 15 0 0 0 -6.11362e+10 -4.08022e+10 -7.19287e+40
519 2 70 15 15 0 0 0 -6.11362e+10 -4.08022e+10 -7.19287e+40
4052 3 67.5 15 15 0 0 0 -6.11362e+10 -4.08022e+10 -7.19287e+40
520 2 75 15 15 0 0 0 -6.11362e+10 -4.08022e+10 -7.19287e+40
4053 3 72.5 15 15 0 0 0 -6.11362e+10 -4.08022e+10 -7.19287e+40
521 2 80 15 15 0 0 0 -6.11362e+10 -4.08022e+10 -7.19287e+40
4054 3 77.5 15 15 0 0 0 -6.11362e+10 -4.08022e+10 -7.19287e+40
522 2 85 15 15 0 0 0 -6.11362e+10 -4.08022e+10 -7.19287e+40
4055 3 82.5 15 15 0 0 0 -6.11362e+10 -4.08022e+10 -7.19287e+40
523 2 90 15 15 0 0 0 -6.11362e+10 -4.08022e+10 -7.19287e+40
4056 3 87.5 15 15 0 0 0 -6.11362e+10 -4.08022e+10 -7.19287e+40
524 2 95 15 15 0 0 0 -6.11362e+10 -4.08022e+10 -7.19287e+40
4057 3 92.5 15 15 0 0 0 -6.11362e+10 -4.08022e+10 -7.19287e+40
525 2 100 15 15 0 0 0 -6.11362e+10 -4.08022e+10 -7.19287e+40
4058 3 97.5 15 15 0 0 0 0 0 -7.19287e+40
4059 3 102.5 15 15 0 0 0 2.78742e+67 0 -3.59643e+40
4060 3 107.5 15 15 0 0 0 1.03694e+24 0 -4.07766e+10
4061 3 112.5 15 15 0 0 0 0 0 0
526 2 0 20 15 0 0 0 -2.78742e+67 -4.08022e+10 -3.59643e+40
527 2 5 20 15 0 0 0 -6.11362e+10 -4.08022e+10 -7.19287e+40
4062 3 2.5 20 15 0 0 0 -6.11362e+10 -4.08022e+10 -7.19287e+40
528 2 10 20 15 0 0 0 -6.11362e+10 -4.08022e+10 -7.19287e+40
4063 3 7.5 20 15 0 0 0 -6.11362e+10 -4.08022e+10 -7.19287e+40
529 2 15 20 15 0 0 0 -6.11362e+10 -4.08022e+10 -7.19287e+40
4064 3 12.5 20 15 0 0 0 -6.11362e+10 -4.08022e+10 -7.19287e+40
530 2 20 20 15 0 0 0 -6.11362e+10 -4.08022e+10 -7.19287e+40
4065 3 17.5 20 15 0 0 0 -6.11362e+10 -4.08022e+10 -7.19287e+40
531 2 25 20 15 0 0 0 -6.11362e+10 -4.08022e+10 -7.19287e+40
4066 3 22.5 20 15 0 0 0 -6.11362e+10 -4.08022e+10 -7.19287e+40
532 2 30 20 15 0 0 0 -6.11362e+10 -4.08022e+10 -7.19287e+40
4067 3 27.5 20 15 0 0 0 -6.11362e+10 -4.08022e+10 -7.19287e+40
533 2 35 20 15 0 0 0 -6.11362e+10 -4.08022e+10 -7.19287e+40
4068 3 32.5 20 15 0 0 0 -6.11362e+10 -4.08022e+10 -7.19287e+40
534 2 40 20 15 0 0 0 -6.11362e+10 -4.08022e+10 -7.19287e+40
4069 3 37.5 20 15 0 0 0 -6.11362e+10 -4.08022e+10 -7.19287e+40
535 2 45 20 15 0 0 0 -6.11362e+10 -4.08022e+10 -7.19287e+40
4070 3 42.5 20 15 0 0 0 -6.11362e+10 -4.08022e+10 -7.19287e+40
536 2 50 20 15 0 0 0 -6.11362e+10 -4.08022e+10 -7.19287e+40
4071 3 47.5 20 15 0 0 0 -6.11362e+10 -4.08022e+10 -7.19287e+40
537 2 55 20 15 0 0 0 -6.11362e+10 -4.08022e+10 -7.19287e+40
4072 3 52.5 20 15 0 0 0 -6.11362e+10 -4.08022e+10 -7.19287e+40
538 2 60 20 15 0 0 0 -6.11362e+10 -4.08022e+10 -7.19287e+40
4073 3 57.5 20 15 0 0 0 -6.11362e+10 -4.08022e+10 -7.19287e+40
539 2 65 20 15 0 0 0 -6.11362e+10 -4.08022e+10 -7.19287e+40
4074 3 62.5 20 15 0 0 0 -6.11362e+10 -4.08022e+10 -7.19287e+40
540 2 70 20 15 0 0 0 -6.11362e+10 -4.08022e+10 -7.19287e+40
4075 3 67.5 20 15 0 0 0 -6.11362e+10 -4.08022e+10 -7.19287e+40
541 2 75 20 15 0 0 0 -6.11362e+10 -4.08022e+10 -7.19287e+40
4076 3 72.5 20 15 0 0 0 -6.11362e+10 -4.08022e+10 -7.19287e+40
542 2 80 20 15 0 0 0 -6.11362e+10 -4.08022e+10 -7.19287e+40
4077 3 77.5 20 15 0 0 0 -6.11362e+10 -4.08022e+10 -7.19287e+40
543 2 85 20 15 0 0 0 -6.11362e+10 -4.08022e+10 -7.19287e+40
4078 3 82.5 20 15 0 0 0 -6.11362e+10 -4.08022e+10 -7.19287e+40
544 2 90 20 15 0 0 0 -6.11362e+10 -4.08022e+10 -7.19287e+40
4079 3 87.5 20 15 0 0 0 -6.11362e+10 -4.08022e+10 -7.19287e+40
545 2 95 20 15 0 0 0 -6.11362e+10 -4.08022e+10 -7.19287e+40
4080 3 92.5 20 15 0 0 0 -6.11362e+10 -4.08022e+10 -7.19287e+40
546 2 100 20 15 0 0 0 -6.11362e+10 -4.08022e+10 -7.19287e+40
4081 3 97.5 20 15 0 0 0 0 0 -7.19287e+40
4082 3 102.5 20 15 0 0 0 2.78742e+67 0 -3.59643e+40
4083 3 107.5 20 15 0 0 0 1.03694e+24 0 -4.07766e+10
4084 3 112.5 20 15 0 0 0 0 0 0
547 2 0 25 15 0 0 0 -2.78742e+67 -4.08022e+10 -3.59643e+40
548 2 5 25 15 0 0 0 -6.11362e+10 -4.08022e+10 -7.19287e+40
4085 3 2.5 25 15 0 0 0 -6.11362e+10 -4.08022e+10 -7.19287e+40
549 2 10 25 15 0 0 0 -6.11362e+10 -4.08022e+10 -7.19287e+40
4086 3 7.5 25 15 0 0 0 -6.11362e+10 -4.08022e+10 -7.19287e+40
550 2 15 25 15 0 0 0 -6.11362e+10 -4.08022e+10 -7.19287e+40
4087 3 12.5 25 15 0 0 0 -6.11362e+10 -4.08022e+10 -7.19287e+40
551 2 20 25 15 0 0 0 -6.11362e+10 -4.08022e+10 -7.19287e+40
4088 3 17.5 25 15 0 0 0 -6.11362e+10 -4.08022e+10 -7.19287e+40
552 2 25 25 15 0 0 0 -6.11362e+10 -4.08022e+10 -7.19287e+40
4089 3 22.5 25 15 0 0 0 -6.11362e+10 -4.08022e+10 -7.19287e+40
553 2 30 25 15 0 0 0 -6.11362e+10 -4.08022e+10 -7.19287e+40
4090 3 27.5 25 15 0 0 0 -6.11362e+10 -4.08022e+10 -7.19287e+40
554 2 35 25 15 0 0 0 -6.11362e+10 -4.08022e+10 -7.19287e+40
4091 3 32.5 25 15 0 0 0 -6.11362e+10 -4.08022e+10 -7.19287e+40
555 2 40 25 15 0 0 0 -6.11362e+10 -4.08022e+10 -7.19287e+40
4092 3 37.5 25 15 0 0 0 -6.11362e+10 -4.08022e+10 -7.19287e+40
556 2 45 25 15 0 0 0 -6.11362e+10 -4.08022e+10 -7.19287e+40
4093 3 42.5 25 15 0 0 0 -6.11362e+10 -4.08022e+10 -7.19287e+40
557 2 50 25 15 0 0 0 -6.11362e+10 -4.08022e+10 -7.19287e+40
4094 3 47.5 25 15 0 0 0 -6.11362e+10 -4.08022e+10 -7.19287e+40
558 2 55 25 15 0 0 0 -6.11362e+10 -4.08022e+10 -7.19287e+40
4095 3 52.5 25 15 0 0 0 -6.11362e+10 -4.08022e+10 -7.19287e+40
559 2 60 25 15 0 0 0 -6.11362e+10 -4.08022e+10 -7.19287e+40
4096 3 57.5 25 15 0 0 0 -6.11362e+10 -4.08022e+10 -7.19287e+40
560 2 65 25 15 0 0 0 -6.11362e+10 -4.08022e+10 -7.19287e+40
4097 3 62.5 25 15 0 0 0 -6.11362e+10 -4.08022e+10 -7.19287e+40
561 2 70 25 15 0 0 0 -6.11362e+10 -4.08022e+10 -7.19287e+40
4098 3 67.5 25 15 0 0 0 -6.11362e+10 -4.08022e+10 -7.19287e+40
562 2 75 25 15 0 0 0 -6.11362e+10 -4.08022e+10 -7.19287e+40
4099 3 72.5 25 15 0 0 0 -6.11362e+10 -4.08022e+10 -7.19287e+40
563 2 80 25 15 0 0 0 -6.11362e+10 -4.08022e+10 -7.19287e+40
4100 3 77.5 25 15 0 0 0 -6.11362e+10 -4.08022e+10 -7.19287e+40
564 2 85 25 15 0 0 0 -6.11362e+10 -4.08022e+10 -7.19287e+40
4101 3 82.5 25 15 0 0 0 -6.11362e+10 -4.08022e+10 -7.19287e+40
565 2 90 25 15 0 0 0 -6.11362e+10 -4.08022e+10 -7.19287e+40
4102 3 87.5 25 15 0 0 0 -6.11362e+10 -4.08022e+10 -7.19287e+40
566 2 95 25 15 0 0 0 -6.11362e+10 -4.08022e+10 -7.19287e+40
4103 3 92.5 25 15 0 0 0 -6.11362e+10 -4.08022e+10 -7.19287e+40
567 2 100 25 15 0 0 0 -6.11362e+10 -4.08022e+10 -7.19287e+40
4104 3 97.5 25 15 0 0 0 0 0 -7.19287e+40
4105 3 102.5 25 15 0 0 0 2.78742e+67 0 -3.59643e+40
4106 3 107.5 25 15 0 0 0 1.03694e+24 0 -4.07766e+10
4107 3 112.5 25 15 0 0 0 0 0 0
568 2 0 30 15 0 0 0 -2.78742e+67 -4.08022e+10 -3.59643e+40
569 2 5 30 15 0 0 0 -6.11362e+10 -4.08022e+10 -7.19287e+40
4108 3 2.5 30 15 0 0 0 -6.11362e+10 -4.08022e+10 -7.19287e+40
570 2 10 30 15 0 0 0 -6.11362e+10 -4.08022e+10 -7.19287e+40
4109 3 7.5 30 15 0 0 0 -6.11362e+10 -4.08022e+10 -7.19287e+40
571 2 15 30 15 0 0 0 -6.11362e+10 -4.08022e+10 -7.19287e+40
4110 3 12.5 30 15 0 0 0 -6.11362e+10 -4.08022e+10 -7.19287e+40
572 2 20 30 15 0 0 0 -6.11362e+10 -4.08022e+10 -7.19287e+40
4111 3 17.5 30 15 0 0 0 -6.11362e+10 -4.08022e+10 -7.19287e+40
573 2 25 30 15 0 0 0 -6.11362e+10 -4.08022e+10 -7.19287e+40
4112 3 22.5 30 15 0 0 0 -6.11362e+10 -4.08022e+10 -7.19287e+40
574 2 30 30 15 0 0 0 -6.11362e+10 -4.08022e+10 -7.19287e+40
4113 3 27.5 30 15 0 0 0 -6.11362e+10 -4.08022e+10 -7.19287e+40
575 2 35 30 15 0 0 0 -6.11362e+10 -4.08022e+10 -7.19287e+40
4114 3 32.5 30 15 0 0 0 -6.11362e+10 -4.08022e+10 -7.19287e+40
576 2 40 30 15 0 0 0 -6.11362e+10 -4.08022e+10 -7.19287e+40
4115 3 37.5 30 15 0 0 0 -6.11362e+10 -4.08022e+10 -7.19287e+40
577 2 45 30 15 0 0 0 -6.11362e+10 -4.08022e+10 -7.19287e+40
4116 3 42.5 30 15 0 0 0 -6.11362e+10 -4.08022e+10 -7.19287e+40
578 2 50 30 15 0 0 0 -6.11362e+10 -4.08022e+10 -7.19287e+40
4117 3 47.5 30 15 0 0 0 -6.11362e+10 -4.08022e+10 -7.19287e+40
579 2 55 30 15 0 0 0 -6.11362e+10 -4.08022e+10 -7.19287e+40
4118 3 52.5 30 15 0 0 0 -6.11362e+10 -4.08022e+10 -7.19287e+40
580 2 60 30 15 0 0 0 -6.11362e+10 -4.08022e+10 -7.19287e+40
4119 3 57.5 30 15 0 0 0 -6.11362e+10 -4.08022e+10 -7.19287e+40
581 2 65 30 15 0 0 0 -6.11362e+10 -4.08022e+10 -7.19287e+40
4120 3 62.5 30 15 0 0 0 -6.11362e+10 -4.08022e+10 -7.19287e+40
582 2 70 30 15 0 0 0 -6.11362e+10 -4.08022e+10 -7.19287e+40
4121 3 67.5 30 15 0 0 0 -6.11362e+10 -4.08022e+10 -7.19287e+40
583 2 75 30 15 0 0 0 -6.11362e+10 -4.08022e+10 -7.19287e+40
4122 3 72.5 30 15 0 0 0 -6.11362e+10 -4.08022e+10 -7.19287e+40
584 2 80 30 15 0 0 0 -6.11362e+10 -4.08022e+10 -7.19287e+40
4123 3 77.5 30 15 0 0 0 -6.11362e+10 -4.08022e+10 -7.19287e+40
585 2 85 30 15 0 0 0 -6.11362e+10 -4.08022e+10 -7.19287e+40
4124 3 82.5 30 15 0 0 0 -6.11362e+10 -4.08022e+10 -7.19287e+40
586 2 90 30 15 0 0 0 -6.11362e+10 -4.08022e+10 -7.19287e+40
4125 3 87.5 30 15 0 0 0 -6.11362e+10 -4.08022e+10 -7.19287e+40
587 2 95 30 15 0 0 0 -6.11362e+10 -4.08022e+10 -7.19287e+40
4126 3 92.5 30 15 0 0 0 -6.11362e+10 -4.08022e+10 -7.19287e+40
588 2 100 30 15 0 0 0 -6.11362e+10 -4.08022e+10 -7.19287e+40
4127 3 97.5 30 15 0 0 0 0 0 -7.19287e+40
4128 3 102.5 30 15 0 0 0 2.78742e+67 0 -3.59643e+40
4129 3 107.5 30 15 0 0 0 1.03694e+24 0 -4.07766e+10
4130 3 112.5 30 15 0 0 0 0 0 0
589 2 0 35 15 0 0 0 -2.78742e+67 -4.08022e+10 -3.59643e+40