ITEM: TIMESTEP
0
ITEM: NUMBER OF ATOMS
2715
ITEM: BOX BOUNDS pp pp pp
-1.0000000000000000e+01 1.5000000000000000e+02
-1.0000000000000000e+01 1.5000000000000000e+02
-5.0000000000000000e+00 2.0000000000000000e+02
ITEM: ATOMS id type x y z vx vy vz fx fy fz
11 1 0 0 10 0 0 0 0 0 0
12 1 10 0 10 0 0 0 0 0 0
13 1 20 0 10 0 0 0 0 0 0
14 1 30 0 10 0 0 0 0 0 0
15 1 40 0 10 0 0 0 0 0 0
16 1 50 0 10 0 0 0 0 0 0
17 1 60 0 10 0 0 0 0 0 0
18 1 70 0 10 0 0 0 0 0 0
19 1 80 0 10 0 0 0 0 0 0
20 1 90 0 10 0 0 0 0 0 0
21 1 100 0 10 0 0 0 0 0 0
22 1 110 0 10 0 0 0 0 0 0
23 1 120 0 10 0 0 0 0 0 0
24 1 130 0 10 0 0 0 0 0 0
25 1 140 0 10 0 0 0 0 0 0
26 1 0 10 10 0 0 0 0 0 0
27 1 10 10 10 0 0 0 0 0 0
28 1 20 10 10 0 0 0 0 0 0
29 1 30 10 10 0 0 0 0 0 0
30 1 40 10 10 0 0 0 0 0 0
31 1 50 10 10 0 0 0 0 0 0
32 1 60 10 10 0 0 0 0 0 0
33 1 70 10 10 0 0 0 0 0 0
34 1 80 10 10 0 0 0 0 0 0
35 1 90 10 10 0 0 0 0 0 0
36 1 100 10 10 0 0 0 0 0 0
37 1 110 10 10 0 0 0 0 0 0
38 1 120 10 10 0 0 0 0 0 0
39 1 130 10 10 0 0 0 0 0 0
40 1 140 10 10 0 0 0 0 0 0
41 1 0 20 10 0 0 0 0 0 0
42 1 10 20 10 0 0 0 0 0 0
43 1 20 20 10 0 0 0 0 0 0
44 1 30 20 10 0 0 0 0 0 0
45 1 40 20 10 0 0 0 0 0 0
46 1 50 20 10 0 0 0 0 0 0
47 1 60 20 10 0 0 0 0 0 0
48 1 70 20 10 0 0 0 0 0 0
49 1 80 20 10 0 0 0 0 0 0
50 1 90 20 10 0 0 0 0 0 0
51 1 100 20 10 0 0 0 0 0 0
52 1 110 20 10 0 0 0 0 0 0
53 1 120 20 10 0 0 0 0 0 0
54 1 130 20 10 0 0 0 0 0 0
55 1 140 20 10 0 0 0 0 0 0
56 1 0 30 10 0 0 0 0 0 0
57 1 10 30 10 0 0 0 0 0 0
58 1 20 30 10 0 0 0 0 0 0
59 1 30 30 10 0 0 0 0 0 0
60 1 40 30 10 0 0 0 0 0 0
61 1 50 30 10 0 0 0 0 0 0
62 1 60 30 10 0 0 0 0 0 0
63 1 70 30 10 0 0 0 0 0 0
64 1 80 30 10 0 0 0 0 0 0
65 1 90 30 10 0 0 0 0 0 0
66 1 100 30 10 0 0 0 0 0 0
67 1 110 30 10 0 0 0 0 0 0
68 1 120 30 10 0 0 0 0 0 0
69 1 130 30 10 0 0 0 0 0 0
70 1 140 30 10 0 0 0 0 0 0
71 1 0 40 10 0 0 0 0 0 0
72 1 10 40 10 0 0 0 0 0 0
73 1 20 40 10 0 0 0 0 0 0
74 1 30 40 10 0 0 0 0 0 0
75 1 40 40 10 0 0 0 0 0 0
76 1 50 40 10 0 0 0 0 0 0
77 1 60 40 10 0 0 0 0 0 0
78 1 70 40 10 0 0 0 0 0 0
79 1 80 40 10 0 0 0 0 0 0
80 1 90 40 10 0 0 0 0 0 0
81 1 100 40 10 0 0 0 0 0 0
82 1 110 40 10 0 0 0 0 0 0
83 1 120 40 10 0 0 0 0 0 0
84 1 130 40 10 0 0 0 0 0 0
85 1 140 40 10 0 0 0 0 0 0
86 1 0 50 10 0 0 0 0 0 0
87 1 10 50 10 0 0 0 0 0 0
88 1 20 50 10 0 0 0 0 0 0
89 1 30 50 10 0 0 0 0 0 0
90 1 40 50 10 0 0 0 0 0 0
91 1 50 50 10 0 0 0 0 0 0
92 1 60 50 10 0 0 0 0 0 0
93 1 70 50 10 0 0 0 0 0 0
94 1 80 50 10 0 0 0 0 0 0
95 1 90 50 10 0 0 0 0 0 0
96 1 100 50 10 0 0 0 0 0 0
97 1 110 50 10 0 0 0 0 0 0
98 1 120 50 10 0 0 0 0 0 0
99 1 130 50 10 0 0 0 0 0 0
100 1 140 50 10 0 0 0 0 0 0
101 1 0 60 10 0 0 0 0 0 0
102 1 10 60 10 0 0 0 0 0 0
103 1 20 60 10 0 0 0 0 0 0
104 1 30 60 10 0 0 0 0 0 0
105 1 40 60 10 0 0 0 0 0 0
106 1 50 60 10 0 0 0 0 0 0
107 1 60 60 10 0 0 0 0 0 0
108 1 70 60 10 0 0 0 0 0 0
109 1 80 60 10 0 0 0 0 0 0
110 1 90 60 10 0 0 0 0 0 0
111 1 100 60 10 0 0 0 0 0 0
112 1 110 60 10 0 0 0 0 0 0
113 1 120 60 10 0 0 0 0 0 0
114 1 130 60 10 0 0 0 0 0 0
115 1 140 60 10 0 0 0 0 0 0
116 1 0 70 10 0 0 0 0 0 0
117 1 10 70 10 0 0 0 0 0 0
118 1 20 70 10 0 0 0 0 0 0
119 1 30 70 10 0 0 0 0 0 0
120 1 40 70 10 0 0 0 0 0 0
121 1 50 70 10 0 0 0 0 0 0
122 1 60 70 10 0 0 0 0 0 0
123 1 70 70 10 0 0 0 0 0 0
124 1 80 70 10 0 0 0 0 0 0
125 1 90 70 10 0 0 0 0 0 0
126 1 100 70 10 0 0 0 0 0 0
127 1 110 70 10 0 0 0 0 0 0
128 1 120 70 10 0 0 0 0 0 0
129 1 130 70 10 0 0 0 0 0 0
130 1 140 70 10 0 0 0 0 0 0
131 1 0 80 10 0 0 0 0 0 0
132 1 10 80 10 0 0 0 0 0 0
133 1 20 80 10 0 0 0 0 0 0
134 1 30 80 10 0 0 0 0 0 0
135 1 40 80 10 0 0 0 0 0 0
136 1 50 80 10 0 0 0 0 0 0
137 1 60 80 10 0 0 0 0 0 0
138 1 70 80 10 0 0 0 0 0 0
139 1 80 80 10 0 0 0 0 0 0
140 1 90 80 10 0 0 0 0 0 0
141 1 100 80 10 0 0 0 0 0 0
142 1 110 80 10 0 0 0 0 0 0
143 1 120 80 10 0 0 0 0 0 0
144 1 130 80 10 0 0 0 0 0 0
145 1 140 80 10 0 0 0 0 0 0
146 1 0 90 10 0 0 0 0 0 0
147 1 10 90 10 0 0 0 0 0 0
148 1 20 90 10 0 0 0 0 0 0
149 1 30 90 10 0 0 0 0 0 0
150 1 40 90 10 0 0 0 0 0 0
151 1 50 90 10 0 0 0 0 0 0
152 1 60 90 10 0 0 0 0 0 0
153 1 70 90 10 0 0 0 0 0 0
154 1 80 90 10 0 0 0 0 0 0
155 1 90 90 10 0 0 0 0 0 0
156 1 100 90 10 0 0 0 0 0 0
157 1 110 90 10 0 0 0 0 0 0
158 1 120 90 10 0 0 0 0 0 0
159 1 130 90 10 0 0 0 0 0 0
160 1 140 90 10 0 0 0 0 0 0
161 1 0 100 10 0 0 0 0 0 0
162 1 10 100 10 0 0 0 0 0 0
163 1 20 100 10 0 0 0 0 0 0
164 1 30 100 10 0 0 0 0 0 0
165 1 40 100 10 0 0 0 0 0 0
166 1 50 100 10 0 0 0 0 0 0
167 1 60 100 10 0 0 0 0 0 0
168 1 70 100 10 0 0 0 0 0 0
169 1 80 100 10 0 0 0 0 0 0
170 1 90 100 10 0 0 0 0 0 0
171 1 100 100 10 0 0 0 0 0 0
172 1 110 100 10 0 0 0 0 0 0
173 1 120 100 10 0 0 0 0 0 0
174 1 130 100 10 0 0 0 0 0 0
175 1 140 100 10 0 0 0 0 0 0
176 1 0 110 10 0 0 0 0 0 0
177 1 10 110 10 0 0 0 0 0 0
178 1 20 110 10 0 0 0 0 0 0
179 1 30 110 10 0 0 0 0 0 0
180 1 40 110 10 0 0 0 0 0 0
181 1 50 110 10 0 0 0 0 0 0
182 1 60 110 10 0 0 0 0 0 0
183 1 70 110 10 0 0 0 0 0 0
184 1 80 110 10 0 0 0 0 0 0
185 1 90 110 10 0 0 0 0 0 0
186 1 100 110 10 0 0 0 0 0 0
187 1 110 110 10 0 0 0 0 0 0
188 1 120 110 10 0 0 0 0 0 0
189 1 130 110 10 0 0 0 0 0 0
190 1 140 110 10 0 0 0 0 0 0
191 1 0 120 10 0 0 0 0 0 0
192 1 10 120 10 0 0 0 0 0 0
193 1 20 120 10 0 0 0 0 0 0
194 1 30 120 10 0 0 0 0 0 0
195 1 40 120 10 0 0 0 0 0 0
196 1 50 120 10 0 0 0 0 0 0
197 1 60 120 10 0 0 0 0 0 0
198 1 70 120 10 0 0 0 0 0 0
199 1 80 120 10 0 0 0 0 0 0
200 1 90 120 10 0 0 0 0 0 0
201 1 100 120 10 0 0 0 0 0 0
202 1 110 120 10 0 0 0 0 0 0
203 1 120 120 10 0 0 0 0 0 0
204 1 130 120 10 0 0 0 0 0 0
205 1 140 120 10 0 0 0 0 0 0
206 1 0 130 10 0 0 0 0 0 0
207 1 10 130 10 0 0 0 0 0 0
208 1 20 130 10 0 0 0 0 0 0
209 1 30 130 10 0 0 0 0 0 0
210 1 40 130 10 0 0 0 0 0 0
211 1 50 130 10 0 0 0 0 0 0
212 1 60 130 10 0 0 0 0 0 0
213 1 70 130 10 0 0 0 0 0 0
214 1 80 130 10 0 0 0 0 0 0
215 1 90 130 10 0 0 0 0 0 0
216 1 100 130 10 0 0 0 0 0 0
217 1 110 130 10 0 0 0 0 0 0
218 1 120 130 10 0 0 0 0 0 0
219 1 130 130 10 0 0 0 0 0 0
220 1 140 130 10 0 0 0 0 0 0
221 1 0 140 10 0 0 0 0 0 0
222 1 10 140 10 0 0 0 0 0 0
223 1 20 140 10 0 0 0 0 0 0
224 1 30 140 10 0 0 0 0 0 0
225 1 40 140 10 0 0 0 0 0 0
226 1 50 140 10 0 0 0 0 0 0
227 1 60 140 10 0 0 0 0 0 0
228 1 70 140 10 0 0 0 0 0 0
229 1 80 140 10 0 0 0 0 0 0
230 1 90 140 10 0 0 0 0 0 0
231 1 100 140 10 0 0 0 0 0 0
232 1 110 140 10 0 0 0 0 0 0
233 1 120 140 10 0 0 0 0 0 0
234 1 130 140 10 0 0 0 0 0 0
235 1 140 140 10 0 0 0 0 0 0
236 2 -10 -10 30 0 0 0 0 0 0
237 2 0 -10 30 0 0 0 0 0 0
238 2 10 -10 30 0 0 0 0 0 0
239 2 20 -10 30 0 0 0 0 0 0
240 2 30 -10 30 0 0 0 0 0 0
241 2 40 -10 30 0 0 0 0 0 0
242 2 50 -10 30 0 0 0 0 0 0
243 2 60 -10 30 0 0 0 0 0 0
244 2 70 -10 30 0 0 0 0 0 0
245 2 80 -10 30 0 0 0 0 0 0
246 2 90 -10 30 0 0 0 0 0 0
247 2 100 -10 30 0 0 0 0 0 0
248 2 110 -10 30 0 0 0 0 0 0
249 2 120 -10 30 0 0 0 0 0 0
250 2 130 -10 30 0 0 0 0 0 0
251 2 140 -10 30 0 0 0 0 0 0
252 2 -10 0 30 0 0 0 0 0 0
1530 3 -5 0 30 0 0 0 0 0 0
253 2 0 0 30 0 0 0 0 0 0
1531 3 5 0 30 0 0 0 0 0 0
254 2 10 0 30 0 0 0 0 0 0
1516 3 15 0 30 0 0 0 0 0 0
255 2 20 0 30 0 0 0 0 0 0
1517 3 25 0 30 0 0 0 0 0 0
256 2 30 0 30 0 0 0 0 0 0
1518 3 35 0 30 0 0 0 0 0 0
257 2 40 0 30 0 0 0 0 0 0
1519 3 45 0 30 0 0 0 0 0 0
258 2 50 0 30 0 0 0 0 0 0
1520 3 55 0 30 0 0 0 0 0 0
259 2 60 0 30 0 0 0 0 0 0
1521 3 65 0 30 0 0 0 0 0 0
260 2 70 0 30 0 0 0 0 0 0
1522 3 75 0 30 0 0 0 0 0 0
261 2 80 0 30 0 0 0 0 0 0
1523 3 85 0 30 0 0 0 0 0 0
262 2 90 0 30 0 0 0 0 0 0
1524 3 95 0 30 0 0 0 0 0 0
263 2 100 0 30 0 0 0 0 0 0
1525 3 105 0 30 0 0 0 0 0 0
264 2 110 0 30 0 0 0 0 0 0
1526 3 115 0 30 0 0 0 0 0 0
265 2 120 0 30 0 0 0 0 0 0
1527 3 125 0 30 0 0 0 0 0 0
266 2 130 0 30 0 0 0 0 0 0
1528 3 135 0 30 0 0 0 0 0 0
267 2 140 0 30 0 0 0 0 0 0
1529 3 145 0 30 0 0 0 0 0 0
268 2 -10 10 30 0 0 0 0 0 0
1546 3 -5 10 30 0 0 0 0 0 0
269 2 0 10 30 0 0 0 0 0 0
1547 3 5 10 30 0 0 0 0 0 0
270 2 10 10 30 0 0 0 0 0 0
1532 3 15 10 30 0 0 0 0 0 0
271 2 20 10 30 0 0 0 0 0 0
1533 3 25 10 30 0 0 0 0 0 0
272 2 30 10 30 0 0 0 0 0 0
1534 3 35 10 30 0 0 0 0 0 0
273 2 40 10 30 0 0 0 0 0 0
1535 3 45 10 30 0 0 0 0 0 0
274 2 50 10 30 0 0 0 0 0 0
1536 3 55 10 30 0 0 0 0 0 0
275 2 60 10 30 0 0 0 0 0 0
1537 3 65 10 30 0 0 0 0 0 0
276 2 70 10 30 0 0 0 0 0 0
1538 3 75 10 30 0 0 0 0 0 0
277 2 80 10 30 0 0 0 0 0 0
1539 3 85 10 30 0 0 0 0 0 0
278 2 90 10 30 0 0 0 0 0 0
1540 3 95 10 30 0 0 0 0 0 0
279 2 100 10 30 0 0 0 0 0 0
1541 3 105 10 30 0 0 0 0 0 0
280 2 110 10 30 0 0 0 0 0 0
1542 3 115 10 30 0 0 0 0 0 0
281 2 120 10 30 0 0 0 0 0 0
1543 3 125 10 30 0 0 0 0 0 0
282 2 130 10 30 0 0 0 0 0 0
1544 3 135 10 30 0 0 0 0 0 0
283 2 140 10 30 0 0 0 0 0 0
1545 3 145 10 30 0 0 0 0 0 0
284 2 -10 20 30 0 0 0 0 0 0
1562 3 -5 20 30 0 0 0 0 0 0
285 2 0 20 30 0 0 0 0 0 0
1563 3 5 20 30 0 0 0 0 0 0
286 2 10 20 30 0 0 0 0 0 0
1548 3 15 20 30 0 0 0 0 0 0
287 2 20 20 30 0 0 0 0 0 0
1549 3 25 20 30 0 0 0 0 0 0
288 2 30 20 30 0 0 0 0 0 0
1550 3 35 20 30 0 0 0 0 0 0
289 2 40 20 30 0 0 0 0 0 0
1551 3 45 20 30 0 0 0 0 0 0
290 2 50 20 30 0 0 0 0 0 0
1552 3 55 20 30 0 0 0 0 0 0
291 2 60 20 30 0 0 0 0 0 0
1553 3 65 20 30 0 0 0 0 0 0
292 2 70 20 30 0 0 0 0 0 0
1554 3 75 20 30 0 0 0 0 0 0
293 2 80 20 30 0 0 0 0 0 0
1555 3 85 20 30 0 0 0 0 0 0
294 2 90 20 30 0 0 0 0 0 0
1556 3 95 20 30 0 0 0 0 0 0
295 2 100 20 30 0 0 0 0 0 0
1557 3 105 20 30 0 0 0 0 0 0
296 2 110 20 30 0 0 0 0 0 0
1558 3 115 20 30 0 0 0 0 0 0
297 2 120 20 30 0 0 0 0 0 0
1559 3 125 20 30 0 0 0 0 0 0
298 2 130 20 30 0 0 0 0 0 0
1560 3 135 20 30 0 0 0 0 0 0
299 2 140 20 30 0 0 0 0 0 0
1561 3 145 20 30 0 0 0 0 0 0
300 2 -10 30 30 0 0 0 0 0 0
1578 3 -5 30 30 0 0 0 0 0 0
301 2 0 30 30 0 0 0 0 0 0
1579 3 5 30 30 0 0 0 0 0 0
302 2 10 30 30 0 0 0 0 0 0
1564 3 15 30 30 0 0 0 0 0 0
303 2 20 30 30 0 0 0 0 0 0
1565 3 25 30 30 0 0 0 0 0 0
304 2 30 30 30 0 0 0 0 0 0
1566 3 35 30 30 0 0 0 0 0 0
305 2 40 30 30 0 0 0 0 0 0
1567 3 45 30 30 0 0 0 0 0 0
306 2 50 30 30 0 0 0 0 0 0
1568 3 55 30 30 0 0 0 0 0 0
307 2 60 30 30 0 0 0 0 0 0
1569 3 65 30 30 0 0 0 0 0 0
308 2 70 30 30 0 0 0 0 0 0
1570 3 75 30 30 0 0 0 0 0 0
309 2 80 30 30 0 0 0 0 0 0
1571 3 85 30 30 0 0 0 0 0 0
310 2 90 30 30 0 0 0 0 0 0
1572 3 95 30 30 0 0 0 0 0 0
311 2 100 30 30 0 0 0 0 0 0
1573 3 105 30 30 0 0 0 0 0 0
312 2 110 30 30 0 0 0 0 0 0
1574 3 115 30 30 0 0 0 0 0 0
313 2 120 30 30 0 0 0 0 0 0
1575 3 125 30 30 0 0 0 0 0 0
314 2 130 30 30 0 0 0 0 0 0
1576 3 135 30 30 0 0 0 0 0 0
315 2 140 30 30 0 0 0 0 0 0
1577 3 145 30 30 0 0 0 0 0 0
316 2 -10 40 30 0 0 0 0 0 0
1594 3 -5 40 30 0 0 0 0 0 0
317 2 0 40 30 0 0 0 0 0 0
1595 3 5 40 30 0 0 0 0 0 0
318 2 10 40 30 0 0 0 0 0 0
1580 3 15 40 30 0 0 0 0 0 0
319 2 20 40 30 0 0 0 0 0 0
1581 3 25 40 30 0 0 0 0 0 0
320 2 30 40 30 0 0 0 0 0 0
1582 3 35 40 30 0 0 0 0 0 0
321 2 40 40 30 0 0 0 0 0 0
1583 3 45 40 30 0 0 0 0 0 0
322 2 50 40 30 0 0 0 0 0 0
1584 3 55 40 30 0 0 0 0 0 0
323 2 60 40 30 0 0 0 0 0 0
1585 3 65 40 30 0 0 0 0 0 0
324 2 70 40 30 0 0 0 0 0 0
1586 3 75 40 30 0 0 0 0 0 0
325 2 80 40 30 0 0 0 0 0 0
1587 3 85 40 30 0 0 0 0 0 0
326 2 90 40 30 0 0 0 0 0 0
1588 3 95 40 30 0 0 0 0 0 0
327 2 100 40 30 0 0 0 0 0 0
1589 3 105 40 30 0 0 0 0 0 0
328 2 110 40 30 0 0 0 0 0 0
1590 3 115 40 30 0 0 0 0 0 0
329 2 120 40 30 0 0 0 0 0 0
1591 3 125 40 30 0 0 0 0 0 0
330 2 130 40 30 0 0 0 0 0 0
1592 3 135 40 30 0 0 0 0 0 0
331 2 140 40 30 0 0 0 0 0 0
1593 3 145 40 30 0 0 0 0 0 0
332 2 -10 50 30 0 0 0 0 0 0
1610 3 -5 50 30 0 0 0 0 0 0
333 2 0 50 30 0 0 0 0 0 0
1611 3 5 50 30 0 0 0 0 0 0
334 2 10 50 30 0 0 0 0 0 0
1596 3 15 50 30 0 0 0 0 0 0
335 2 20 50 30 0 0 0 0 0 0
1597 3 25 50 30 0 0 0 0 0 0
336 2 30 50 30 0 0 0 0 0 0
1598 3 35 50 30 0 0 0 0 0 0
337 2 40 50 30 0 0 0 0 0 0
1599 3 45 50 30 0 0 0 0 0 0
338 2 50 50 30 0 0 0 0 0 0
1600 3 55 50 30 0 0 0 0 0 0
339 2 60 50 30 0 0 0 0 0 0
1601 3 65 50 30 0 0 0 0 0 0
340 2 70 50 30 0 0 0 0 0 0
1602 3 75 50 30 0 0 0 0 0 0
341 2 80 50 30 0 0 0 0 0 0
1603 3 85 50 30 0 0 0 0 0 0
342 2 90 50 30 0 0 0 0 0 0
1604 3 95 50 30 0 0 0 0 0 0
343 2 100 50 30 0 0 0 0 0 0
1605 3 105 50 30 0 0 0 0 0 0
344 2 110 50 30 0 0 0 0 0 0
1606 3 115 50 30 0 0 0 0 0 0
345 2 120 50 30 0 0 0 0 0 0
1607 3 125 50 30 0 0 0 0 0 0
346 2 130 50 30 0 0 0 0 0 0
1608 3 135 50 30 0 0 0 0 0 0
347 2 140 50 30 0 0 0 0 0 0
1609 3 145 50 30 0 0 0 0 0 0
348 2 -10 60 30 0 0 0 0 0 0
1626 3 -5 60 30 0 0 0 0 0 0
349 2 0 60 30 0 0 0 0 0 0
1627 3 5 60 30 0 0 0 0 0 0
350 2 10 60 30 0 0 0 0 0 0
1612 3 15 60 30 0 0 0 0 0 0
351 2 20 60 30 0 0 0 0 0 0
1613 3 25 60 30 0 0 0 0 0 0
352 2 30 60 30 0 0 0 0 0 0
1614 3 35 60 30 0 0 0 0 0 0
353 2 40 60 30 0 0 0 0 0 0
1615 3 45 60 30 0 0 0 0 0 0
354 2 50 60 30 0 0 0 0 0 0
1616 3 55 60 30 0 0 0 0 0 0
355 2 60 60 30 0 0 0 0 0 0
1617 3 65 60 30 0 0 0 0 0 0
356 2 70 60 30 0 0 0 0 0 0
1618 3 75 60 30 0 0 0 0 0 0
357 2 80 60 30 0 0 0 0 0 0
1619 3 85 60 30 0 0 0 0 0 0
358 2 90 60 30 0 0 0 0 0 0
1620 3 95 60 30 0 0 0 0 0 0
359 2 100 60 30 0 0 0 0 0 0
1621 3 105 60 30 0 0 0 0 0 0
360 2 110 60 30 0 0 0 0 0 0
1622 3 115 60 30 0 0 0 0 0 0
361 2 120 60 30 0 0 0 0 0 0
1623 3 125 60 30 0 0 0 0 0 0
362 2 130 60 30 0 0 0 0 0 0
1624 3 135 60 30 0 0 0 0 0 0
363 2 140 60 30 0 0 0 0 0 0
1625 3 145 60 30 0 0 0 0 0 0
364 2 -10 70 30 0 0 0 0 0 0
1642 3 -5 70 30 0 0 0 0 0 0
365 2 0 70 30 0 0 0 0 0 0
1643 3 5 70 30 0 0 0 0 0 0
366 2 10 70 30 0 0 0 0 0 0
1628 3 15 70 30 0 0 0 0 0 0
367 2 20 70 30 0 0 0 0 0 0
1629 3 25 70 30 0 0 0 0 0 0
368 2 30 70 30 0 0 0 0 0 0
1630 3 35 70 30 0 0 0 0 0 0
369 2 40 70 30 0 0 0 0 0 0
1631 3 45 70 30 0 0 0 0 0 0
370 2 50 70 30 0 0 0 0 0 0
1632 3 55 70 30 0 0 0 0 0 0
371 2 60 70 30 0 0 0 0 0 0
1633 3 65 70 30 0 0 0 0 0 0
372 2 70 70 30 0 0 0 0 0 0
1634 3 75 70 30 0 0 0 0 0 0
373 2 80 70 30 0 0 0 0 0 0
1635 3 85 70 30 0 0 0 0 0 0
374 2 90 70 30 0 0 0 0 0 0
1636 3 95 70 30 0 0 0 0 0 0
375 2 100 70 30 0 0 0 0 0 0
1637 3 105 70 30 0 0 0 0 0 0
376 2 110 70 30 0 0 0 0 0 0
1638 3 115 70 30 0 0 0 0 0 0
377 2 120 70 30 0 0 0 0 0 0
1639 3 125 70 30 0 0 0 0 0 0
378 2 130 70 30 0 0 0 0 0 0
1640 3 135 70 30 0 0 0 0 0 0
379 2 140 70 30 0 0 0 0 0 0
1641 3 145 70 30 0 0 0 0 0 0
380 2 -10 80 30 0 0 0 0 0 0
1658 3 -5 80 30 0 0 0 0 0 0
381 2 0 80 30 0 0 0 0 0 0
1659 3 5 80 30 0 0 0 0 0 0
382 2 10 80 30 0 0 0 0 0 0
1644 3 15 80 30 0 0 0 0 0 0
383 2 20 80 30 0 0 0 0 0 0
1645 3 25 80 30 0 0 0 0 0 0
384 2 30 80 30 0 0 0 0 0 0
1646 3 35 80 30 0 0 0 0 0 0
385 2 40 80 30 0 0 0 0 0 0
1647 3 45 80 30 0 0 0 0 0 0
386 2 50 80 30 0 0 0 0 0 0
1648 3 55 80 30 0 0 0 0 0 0
387 2 60 80 30 0 0 0 0 0 0
1649 3 65 80 30 0 0 0 0 0 0
388 2 70 80 30 0 0 0 0 0 0
1650 3 75 80 30 0 0 0 0 0 0
389 2 80 80 30 0 0 0 0 0 0
1651 3 85 80 30 0 0 0 0 0 0
390 2 90 80 30 0 0 0 0 0 0
1652 3 95 80 30 0 0 0 0 0 0
391 2 100 80 30 0 0 0 0 0 0
1653 3 105 80 30 0 0 0 0 0 0
392 2 110 80 30 0 0 0 0 0 0
1654 3 115 80 30 0 0 0 0 0 0
393 2 120 80 30 0 0 0 0 0 0
1655 3 125 80 30 0 0 0 0 0 0
394 2 130 80 30 0 0 0 0 0 0
1656 3 135 80 30 0 0 0 0 0 0
395 2 140 80 30 0 0 0 0 0 0
1657 3 145 80 30 0 0 0 0 0 0
396 2 -10 90 30 0 0 0 0 0 0
1674 3 -5 90 30 0 0 0 0 0 0
397 2 0 90 30 0 0 0 0 0 0
1675 3 5 90 30 0 0 0 0 0 0
398 2 10 90 30 0 0 0 0 0 0
1660 3 15 90 30 0 0 0 0 0 0
399 2 20 90 30 0 0 0 0 0 0
1661 3 25 90 30 0 0 0 0 0 0
400 2 30 90 30 0 0 0 0 0 0
1662 3 35 90 30 0 0 0 0 0 0
401 2 40 90 30 0 0 0 0 0 0
1663 3 45 90 30 0 0 0 0 0 0
402 2 50 90 30 0 0 0 0 0 0
1664 3 55 90 30 0 0 0 0 0 0
403 2 60 90 30 0 0 0 0 0 0
1665 3 65 90 30 0 0 0 0 0 0
404 2 70 90 30 0 0 0 0 0 0
1666 3 75 90 30 0 0 0 0 0 0
405 2 80 90 30 0 0 0 0 0 0
1667 3 85 90 30 0 0 0 0 0 0
406 2 90 90 30 0 0 0 0 0 0
1668 3 95 90 30 0 0 0 0 0 0
407 2 100 90 30 0 0 0 0 0 0
1669 3 105 90 30 0 0 0 0 0 0
408 2 110 90 30 0 0 0 0 0 0
1670 3 115 90 30 0 0 0 0 0 0
409 2 120 90 30 0 0 0 0 0 0
1671 3 125 90 30 0 0 0 0 0 0
410 2 130 90 30 0 0 0 0 0 0
1672 3 135 90 30 0 0 0 0 0 0
411 2 140 90 30 0 0 0 0 0 0
1673 3 145 90 30 0 0 0 0 0 0
412 2 -10 100 30 0 0 0 0 0 0
1690 3 -5 100 30 0 0 0 0 0 0
413 2 0 100 30 0 0 0 0 0 0
1691 3 5 100 30 0 0 0 0 0 0
414 2 10 100 30 0 0 0 0 0 0
1676 3 15 100 30 0 0 0 0 0 0
415 2 20 100 30 0 0 0 0 0 0
1677 3 25 100 30 0 0 0 0 0 0
416 2 30 100 30 0 0 0 0 0 0
1678 3 35 100 30 0 0 0 0 0 0
417 2 40 100 30 0 0 0 0 0 0
1679 3 45 100 30 0 0 0 0 0 0
418 2 50 100 30 0 0 0 0 0 0
1680 3 55 100 30 0 0 0 0 0 0
419 2 60 100 30 0 0 0 0 0 0
1681 3 65 100 30 0 0 0 0 0 0
420 2 70 100 30 0 0 0 0 0 0
1682 3 75 100 30 0 0 0 0 0 0
421 2 80 100 30 0 0 0 0 0 0
1683 3 85 100 30 0 0 0 0 0 0
422 2 90 100 30 0 0 0 0 0 0
1684 3 95 100 30 0 0 0 0 0 0
423 2 100 100 30 0 0 0 0 0 0
1685 3 105 100 30 0 0 0 0 0 0
424 2 110 100 30 0 0 0 0 0 0
1686 3 115 100 30 0 0 0 0 0 0
425 2 120 100 30 0 0 0 0 0 0
1687 3 125 100 30 0 0 0 0 0 0
426 2 130 100 30 0 0 0 0 0 0
1688 3 135 100 30 0 0 0 0 0 0
427 2 140 100 30 0 0 0 0 0 0
1689 3 145 100 30 0 0 0 0 0 0
428 2 -10 110 30 0 0 0 0 0 0
1706 3 -5 110 30 0 0 0 0 0 0
429 2 0 110 30 0 0 0 0 0 0
1707 3 5 110 30 0 0 0 0 0 0
430 2 10 110 30 0 0 0 0 0 0
1692 3 15 110 30 0 0 0 0 0 0
431 2 20 110 30 0 0 0 0 0 0
1693 3 25 110 30 0 0 0 0 0 0
432 2 30 110 30 0 0 0 0 0 0
1694 3 35 110 30 0 0 0 0 0 0
433 2 40 110 30 0 0 0 0 0 0
1695 3 45 110 30 0 0 0 0 0 0
434 2 50 110 30 0 0 0 0 0 0
1696 3 55 110 30 0 0 0 0 0 0
435 2 60 110 30 0 0 0 0 0 0
1697 3 65 110 30 0 0 0 0 0 0
436 2 70 110 30 0 0 0 0 0 0
1698 3 75 110 30 0 0 0 0 0 0
437 2 80 110 30 0 0 0 0 0 0
1699 3 85 110 30 0 0 0 0 0 0
438 2 90 110 30 0 0 0 0 0 0
1700 3 95 110 30 0 0 0 0 0 0
439 2 100 110 30 0 0 0 0 0 0
1701 3 105 110 30 0 0 0 0 0 0
440 2 110 110 30 0 0 0 0 0 0
1702 3 115 110 30 0 0 0 0 0 0
441 2 120 110 30 0 0 0 0 0 0
1703 3 125 110 30 0 0 0 0 0 0
442 2 130 110 30 0 0 0 0 0 0
1704 3 135 110 30 0 0 0 0 0 0
443 2 140 110 30 0 0 0 0 0 0
1705 3 145 110 30 0 0 0 0 0 0
444 2 -10 120 30 0 0 0 0 0 0
1722 3 -5 120 30 0 0 0 0 0 0
445 2 0 120 30 0 0 0 0 0 0
1723 3 5 120 30 0 0 0 0 0 0
446 2 10 120 30 0 0 0 0 0 0
1708 3 15 120 30 0 0 0 0 0 0
447 2 20 120 30 0 0 0 0 0 0
1709 3 25 120 30 0 0 0 0 0 0
448 2 30 120 30 0 0 0 0 0 0
1710 3 35 120 30 0 0 0 0 0 0
449 2 40 120 30 0 0 0 0 0 0
1711 3 45 120 30 0 0 0 0 0 0
450 2 50 120 30 0 0 0 0 0 0
1712 3 55 120 30 0 0 0 0 0 0
451 2 60 120 30 0 0 0 0 0 0
1713 3 65 120 30 0 0 0 0 0 0
452 2 70 120 30 0 0 0 0 0 0
1714 3 75 120 30 0 0 0 0 0 0
453 2 80 120 30 0 0 0 0 0 0
1715 3 85 120 30 0 0 0 0 0 0
454 2 90 120 30 0 0 0 0 0 0
1716 3 95 120 30 0 0 0 0 0 0
455 2 100 120 30 0 0 0 0 0 0
1717 3 105 120 30 0 0 0 0 0 0
456 2 110 120 30 0 0 0 0 0 0
1718 3 115 120 30 0 0 0 0 0 0
457 2 120 120 30 0 0 0 0 0 0
1719 3 125 120 30 0 0 0 0 0 0
458 2 130 120 30 0 0 0 0 0 0
1720 3 135 120 30 0 0 0 0 0 0
459 2 140 120 30 0 0 0 0 0 0
1721 3 145 120 30 0 0 0 0 0 0
460 2 -10 130 30 0 0 0 0 0 0
1738 3 -5 130 30 0 0 0 0 0 0
461 2 0 130 30 0 0 0 0 0 0
1739 3 5 130 30 0 0 0 0 0 0
462 2 10 130 30 0 0 0 0 0 0
1724 3 15 130 30 0 0 0 0 0 0
463 2 20 130 30 0 0 0 0 0 0
1725 3 25 130 30 0 0 0 0 0 0
464 2 30 130 30 0 0 0 0 0 0
1726 3 35 130 30 0 0 0 0 0 0
465 2 40 130 30 0 0 0 0 0 0
1727 3 45 130 30 0 0 0 0 0 0
466 2 50 130 30 0 0 0 0 0 0
1728 3 55 130 30 0 0 0 0 0 0
467 2 60 130 30 0 0 0 0 0 0
1729 3 65 130 30 0 0 0 0 0 0
468 2 70 130 30 0 0 0 0 0 0
1730 3 75 130 30 0 0 0 0 0 0
469 2 80 130 30 0 0 0 0 0 0
1731 3 85 130 30 0 0 0 0 0 0
470 2 90 130 30 0 0 0 0 0 0
1732 3 95 130 30 0 0 0 0 0 0
471 2 100 130 30 0 0 0 0 0 0
1733 3 105 130 30 0 0 0 0 0 0
472 2 110 130 30 0 0 0 0 0 0
1734 3 115 130 30 0 0 0 0 0 0
473 2 120 130 30 0 0 0 0 0 0
1735 3 125 130 30 0 0 0 0 0 0
474 2 130 130 30 0 0 0 0 0 0
1736 3 135 130 30 0 0 0 0 0 0
475 2 140 130 30 0 0 0 0 0 0
1737 3 145 130 30 0 0 0 0 0 0
476 2 -10 140 30 0 0 0 0 0 0
1754 3 -5 140 30 0 0 0 0 0 0
477 2 0 140 30 0 0 0 0 0 0
1755 3 5 140 30 0 0 0 0 0 0
478 2 10 140 30 0 0 0 0 0 0
1740 3 15 140 30 0 0 0 0 0 0
479 2 20 140 30 0 0 0 0 0 0
1741 3 25 140 30 0 0 0 0 0 0
480 2 30 140 30 0 0 0 0 0 0
1742 3 35 140 30 0 0 0 0 0 0
481 2 40 140 30 0 0 0 0 0 0
1743 3 45 140 30 0 0 0 0 0 0
482 2 50 140 30 0 0 0 0 0 0
1744 3 55 140 30 0 0 0 0 0 0
483 2 60 140 30 0 0 0 0 0 0
1745 3 65 140 30 0 0 0 0 0 0
484 2 70 140 30 0 0 0 0 0 0
1746 3 75 140 30 0 0 0 0 0 0
485 2 80 140 30 0 0 0 0 0 0
1747 3 85 140 30 0 0 0 0 0 0
486 2 90 140 30 0 0 0 0 0 0
1748 3 95 140 30 0 0 0 0 0 0
487 2 100 140 30 0 0 0 0 0 0
1749 3 105 140 30 0 0 0 0 0 0
488 2 110 140 30 0 0 0 0 0 0
1750 3 115 140 30 0 0 0 0 0 0
489 2 120 140 30 0 0 0 0 0 0
1751 3 125 140 30 0 0 0 0 0 0
490 2 130 140 30 0 0 0 0 0 0
1752 3 135 140 30 0 0 0 0 0 0
491 2 140 140 30 0 0 0 0 0 0
1753 3 145 140 30 0 0 0 0 0 0
492 2 -10 -10 40 0 0 0 0 0 0
493 2 0 -10 40 0 0 0 0 0 0
494 2 10 -10 40 0 0 0 0 0 0
495 2 20 -10 40 0 0 0 0 0 0
496 2 30 -10 40 0 0 0 0 0 0
497 2 40 -10 40 0 0 0 0 0 0
498 2 50 -10 40 0 0 0 0 0 0
499 2 60 -10 40 0 0 0 0 0 0
500 2 70 -10 40 0 0 0 0 0 0
501 2 80 -10 40 0 0 0 0 0 0
502 2 90 -10 40 0 0 0 0 0 0
503 2 100 -10 40 0 0 0 0 0 0
504 2 110 -10 40 0 0 0 0 0 0
505 2 120 -10 40 0 0 0 0 0 0
506 2 130 -10 40 0 0 0 0 0 0
507 2 140 -10 40 0 0 0 0 0 0
508 2 -10 0 40 0 0 0 0 0 0
1770 3 -5 0 40 0 0 0 0 0 0
509 2 0 0 40 0 0 0 0 0 0
1771 3 5 0 40 0 0 0 0 0 0
510 2 10 0 40 0 0 0 0 0 0
1756 3 15 0 40 0 0 0 0 0 0
511 2 20 0 40 0 0 0 0 0 0
1757 3 25 0 40 0 0 0 0 0 0
512 2 30 0 40 0 0 0 0 0 0
1758 3 35 0 40 0 0 0 0 0 0
513 2 40 0 40 0 0 0 0 0 0
1759 3 45 0 40 0 0 0 0 0 0
514 2 50 0 40 0 0 0 0 0 0
1760 3 55 0 40 0 0 0 0 0 0
515 2 60 0 40 0 0 0 0 0 0
1761 3 65 0 40 0 0 0 0 0 0
516 2 70 0 40 0 0 0 0 0 0
1762 3 75 0 40 0 0 0 0 0 0
517 2 80 0 40 0 0 0 0 0 0
1763 3 85 0 40 0 0 0 0 0 0
518 2 90 0 40 0 0 0 0 0 0
1764 3 95 0 40 0 0 0 0 0 0
519 2 100 0 40 0 0 0 0 0 0
1765 3 105 0 40 0 0 0 0 0 0
520 2 110 0 40 0 0 0 0 0 0
1766 3 115 0 40 0 0 0 0 0 0
521 2 120 0 40 0 0 0 0 0 0
1767 3 125 0 40 0 0 0 0 0 0
522 2 130 0 40 0 0 0 0 0 0
1768 3 135 0 40 0 0 0 0 0 0
523 2 140 0 40 0 0 0 0 0 0
1769 3 145 0 40 0 0 0 0 0 0
524 2 -10 10 40 0 0 0 0 0 0
1786 3 -5 10 40 0 0 0 0 0 0
525 2 0 10 40 0 0 0 0 0 0
1787 3 5 10 40 0 0 0 0 0 0
526 2 10 10 40 0 0 0 0 0 0
1772 3 15 10 40 0 0 0 0 0 0
527 2 20 10 40 0 0 0 0 0 0
1773 3 25 10 40 0 0 0 0 0 0
528 2 30 10 40 0 0 0 0 0 0
1774 3 35 10 40 0 0 0 0 0 0
529 2 40 10 40 0 0 0 0 0 0
1775 3 45 10 40 0 0 0 0 0 0
530 2 50 10 40 0 0 0 0 0 0
1776 3 55 10 40 0 0 0 0 0 0
531 2 60 10 40 0 0 0 0 0 0
1777 3 65 10 40 0 0 0 0 0 0
532 2 70 10 40 0 0 0 0 0 0
1778 3 75 10 40 0 0 0 0 0 0
533 2 80 10 40 0 0 0 0 0 0
1779 3 85 10 40 0 0 0 0 0 0
534 2 90 10 40 0 0 0 0 0 0
1780 3 95 10 40 0 0 0 0 0 0
535 2 100 10 40 0 0 0 0 0 0
1781 3 105 10 40 0 0 0 0 0 0
536 2 110 10 40 0 0 0 0 0 0
1782 3 115 10 40 0 0 0 0 0 0
537 2 120 10 40 0 0 0 0 0 0
1783 3 125 10 40 0 0 0 0 0 0
538 2 130 10 40 0 0 0 0 0 0
1784 3 135 10 40 0 0 0 0 0 0
539 2 140 10 40 0 0 0 0 0 0
1785 3 145 10 40 0 0 0 0 0 0
540 2 -10 20 40 0 0 0 0 0 0
1802 3 -5 20 40 0 0 0 0 0 0
541 2 0 20 40 0 0 0 0 0 0
1803 3 5 20 40 0 0 0 0 0 0
542 2 10 20 40 0 0 0 0 0 0
1788 3 15 20 40 0 0 0 0 0 0
543 2 20 20 40 0 0 0 0 0 0
1789 3 25 20 40 0 0 0 0 0 0
544 2 30 20 40 0 0 0 0 0 0
1790 3 35 20 40 0 0 0 0 0 0
545 2 40 20 40 0 0 0 0 0 0
1791 3 45 20 40 0 0 0 0 0 0
546 2 50 20 40 0 0 0 0 0 0
1792 3 55 20 40 0 0 0 0 0 0
547 2 60 20 40 0 0 0 0 0 0
1793 3 65 20 40 0 0 0 0 0 0
548 2 70 20 40 0 0 0 0 0 0
1794 3 75 20 40 0 0 0 0 0 0
549 2 80 20 40 0 0 0 0 0 0
1795 3 85 20 40 0 0 0 0 0 0
550 2 90 20 40 0 0 0 0 0 0
1796 3 95 20 40 0 0 0 0 0 0
551 2 100 20 40 0 0 0 0 0 0
1797 3 105 20 40 0 0 0 0 0 0
552 2 110 20 40 0 0 0 0 0 0
1798 3 115 20 40 0 0 0 0 0 0
553 2 120 20 40 0 0 0 0 0 0
1799 3 125 20 40 0 0 0 0 0 0
554 2 130 20 40 0 0 0 0 0 0
1800 3 135 20 40 0 0 0 0 0 0
555 2 140 20 40 0 0 0 0 0 0
1801 3 145 20 40 0 0 0 0 0 0
556 2 -10 30 40 0 0 0 0 0 0
1818 3 -5 30 40 0 0 0 0 0 0
557 2 0 30 40 0 0 0 0 0 0
1819 3 5 30 40 0 0 0 0 0 0
558 2 10 30 40 0 0 0 0 0 0
1804 3 15 30 40 0 0 0 0 0 0
559 2 20 30 40 0 0 0 0 0 0
1805 3 25 30 40 0 0 0 0 0 0
560 2 30 30 40 0 0 0 0 0 0
1806 3 35 30 40 0 0 0 0 0 0
561 2 40 30 40 0 0 0 0 0 0
1807 3 45 30 40 0 0 0 0 0 0
562 2 50 30 40 0 0 0 0 0 0
1808 3 55 30 40 0 0 0 0 0 0
563 2 60 30 40 0 0 0 0 0 0
1809 3 65 30 40 0 0 0 0 0 0
564 2 70 30 40 0 0 0 0 0 0
1810 3 75 30 40 0 0 0 0 0 0
565 2 80 30 40 0 0 0 0 0 0
1811 3 85 30 40 0 0 0 0 0 0
566 2 90 30 40 0 0 0 0 0 0
1812 3 95 30 40 0 0 0 0 0 0
567 2 100 30 40 0 0 0 0 0 0
1813 3 105 30 40 0 0 0 0 0 0
568 2 110 30 40 0 0 0 0 0 0
1814 3 115 30 40 0 0 0 0 0 0
569 2 120 30 40 0 0 0 0 0 0
1815 3 125 30 40 0 0 0 0 0 0
570 2 130 30 40 0 0 0 0 0 0
1816 3 135 30 40 0 0 0 0 0 0
571 2 140 30 40 0 0 0 0 0 0
1817 3 145 30 40 0 0 0 0 0 0
572 2 -10 40 40 0 0 0 0 0 0
1834 3 -5 40 40 0 0 0 0 0 0
573 2 0 40 40 0 0 0 0 0 0
1835 3 5 40 40 0 0 0 0 0 0
574 2 10 40 40 0 0 0 0 0 0
1820 3 15 40 40 0 0 0 0 0 0
575 2 20 40 40 0 0 0 0 0 0
1821 3 25 40 40 0 0 0 0 0 0
576 2 30 40 40 0 0 0 0 0 0
1822 3 35 40 40 0 0 0 0 0 0
577 2 40 40 40 0 0 0 0 0 0
1823 3 45 40 40 0 0 0 0 0 0
578 2 50 40 40 0 0 0 0 0 0
1824 3 55 40 40 0 0 0 0 0 0
579 2 60 40 40 0 0 0 0 0 0
1825 3 65 40 40 0 0 0 0 0 0
580 2 70 40 40 0 0 0 0 0 0
1826 3 75 40 40 0 0 0 0 0 0
581 2 80 40 40 0 0 0 0 0 0
1827 3 85 40 40 0 0 0 0 0 0
582 2 90 40 40 0 0 0 0 0 0
1828 3 95 40 40 0 0 0 0 0 0
583 2 100 40 40 0 0 0 0 0 0
1829 3 105 40 40 0 0 0 0 0 0
584 2 110 40 40 0 0 0 0 0 0
1830 3 115 40 40 0 0 0 0 0 0
585 2 120 40 40 0 0 0 0 0 0
1831 3 125 40 40 0 0 0 0 0 0
586 2 130 40 40 0 0 0 0 0 0
1832 3 135 40 40 0 0 0 0 0 0
587 2 140 40 40 0 0 0 0 0 0
1833 3 145 40 40 0 0 0 0 0 0
588 2 -10 50 40 0 0 0 0 0 0
1850 3 -5 50 40 0 0 0 0 0 0
589 2 0 50 40 0 0 0 0 0 0
1851 3 5 50 40 0 0 0 0 0 0
590 2 10 50 40 0 0 0 0 0 0
1836 3 15 50 40 0 0 0 0 0 0
591 2 20 50 40 0 0 0 0 0 0
1837 3 25 50 40 0 0 0 0 0 0
592 2 30 50 40 0 0 0 0 0 0
1838 3 35 50 40 0 0 0 0 0 0
593 2 40 50 40 0 0 0 0 0 0
1839 3 45 50 40 0 0 0 0 0 0
594 2 50 50 40 0 0 0 0 0 0
1840 3 55 50 40 0 0 0 0 0 0
595 2 60 50 40 0 0 0 0 0 0
1841 3 65 50 40 0 0 0 0 0 0
596 2 70 50 40 0 0 0 0 0 0
1842 3 75 50 40 0 0 0 0 0 0
597 2 80 50 40 0 0 0 0 0 0
1843 3 85 50 40 0 0 0 0 0 0
598 2 90 50 40 0 0 0 0 0 0
1844 3 95 50 40 0 0 0 0 0 0
599 2 100 50 40 0 0 0 0 0 0
1845 3 105 50 40 0 0 0 0 0 0
600 2 110 50 40 0 0 0 0 0 0
1846 3 115 50 40 0 0 0 0 0 0
601 2 120 50 40 0 0 0 0 0 0
1847 3 125 50 40 0 0 0 0 0 0
602 2 130 50 40 0 0 0 0 0 0
1848 3 135 50 40 0 0 0 0 0 0
603 2 140 50 40 0 0 0 0 0 0
1849 3 145 50 40 0 0 0 0 0 0
604 2 -10 60 40 0 0 0 0 0 0
1866 3 -5 60 40 0 0 0 0 0 0
605 2 0 60 40 0 0 0 0 0 0
1867 3 5 60 40 0 0 0 0 0 0
606 2 10 60 40 0 0 0 0 0 0
1852 3 15 60 40 0 0 0 0 0 0
607 2 20 60 40 0 0 0 0 0 0
1853 3 25 60 40 0 0 0 0 0 0
608 2 30 60 40 0 0 0 0 0 0
1854 3 35 60 40 0 0 0 0 0 0
609 2 40 60 40 0 0 0 0 0 0
1855 3 45 60 40 0 0 0 0 0 0
610 2 50 60 40 0 0 0 0 0 0
1856 3 55 60 40 0 0 0 0 0 0
611 2 60 60 40 0 0 0 0 0 0
1857 3 65 60 40 0 0 0 0 0 0
612 2 70 60 40 0 0 0 0 0 0
1858 3 75 60 40 0 0 0 0 0 0
613 2 80 60 40 0 0 0 0 0 0
1859 3 85 60 40 0 0 0 0 0 0
614 2 90 60 40 0 0 0 0 0 0
1860 3 95 60 40 0 0 0 0 0 0
615 2 100 60 40 0 0 0 0 0 0
1861 3 105 60 40 0 0 0 0 0 0
616 2 110 60 40 0 0 0 0 0 0
1862 3 115 60 40 0 0 0 0 0 0
617 2 120 60 40 0 0 0 0 0 0
1863 3 125 60 40 0 0 0 0 0 0
618 2 130 60 40 0 0 0 0 0 0
1864 3 135 60 40 0 0 0 0 0 0
619 2 140 60 40 0 0 0 0 0 0
1865 3 145 60 40 0 0 0 0 0 0
620 2 -10 70 40 0 0 0 0 0 0
1882 3 -5 70 40 0 0 0 0 0 0
621 2 0 70 40 0 0 0 0 0 0
1883 3 5 70 40 0 0 0 0 0 0
622 2 10 70 40 0 0 0 0 0 0
1868 3 15 70 40 0 0 0 0 0 0
623 2 20 70 40 0 0 0 0 0 0
1869 3 25 70 40 0 0 0 0 0 0
624 2 30 70 40 0 0 0 0 0 0
1870 3 35 70 40 0 0 0 0 0 0
625 2 40 70 40 0 0 0 0 0 0
1871 3 45 70 40 0 0 0 0 0 0
626 2 50 70 40 0 0 0 0 0 0
1872 3 55 70 40 0 0 0 0 0 0
627 2 60 70 40 0 0 0 0 0 0
1873 3 65 70 40 0 0 0 0 0 0
628 2 70 70 40 0 0 0 0 0 0
1874 3 75 70 40 0 0 0 0 0 0
629 2 80 70 40 0 0 0 0 0 0
1875 3 85 70 40 0 0 0 0 0 0
630 2 90 70 40 0 0 0 0 0 0
1876 3 95 70 40 0 0 0 0 0 0
631 2 100 70 40 0 0 0 0 0 0
1877 3 105 70 40 0 0 0 0 0 0
632 2 110 70 40 0 0 0 0 0 0
1878 3 115 70 40 0 0 0 0 0 0
633 2 120 70 40 0 0 0 0 0 0
1879 3 125 70 40 0 0 0 0 0 0
634 2 130 70 40 0 0 0 0 0 0
1880 3 135 70 40 0 0 0 0 0 0
635 2 140 70 40 0 0 0 0 0 0
1881 3 145 70 40 0 0 0 0 0 0
636 2 -10 80 40 0 0 0 0 0 0
1898 3 -5 80 40 0 0 0 0 0 0
637 2 0 80 40 0 0 0 0 0 0
1899 3 5 80 40 0 0 0 0 0 0
638 2 10 80 40 0 0 0 0 0 0
1884 3 15 80 40 0 0 0 0 0 0
639 2 20 80 40 0 0 0 0 0 0
1885 3 25 80 40 0 0 0 0 0 0
640 2 30 80 40 0 0 0 0 0 0
1886 3 35 80 40 0 0 0 0 0 0
641 2 40 80 40 0 0 0 0 0 0
1887 3 45 80 40 0 0 0 0 0 0
642 2 50 80 40 0 0 0 0 0 0
1888 3 55 80 40 0 0 0 0 0 0
643 2 60 80 40 0 0 0 0 0 0
1889 3 65 80 40 0 0 0 0 0 0
644 2 70 80 40 0 0 0 0 0 0
1890 3 75 80 40 0 0 0 0 0 0
645 2 80 80 40 0 0 0 0 0 0
1891 3 85 80 40 0 0 0 0 0 0
646 2 90 80 40 0 0 0 0 0 0
1892 3 95 80 40 0 0 0 0 0 0
647 2 100 80 40 0 0 0 0 0 0
1893 3 105 80 40 0 0 0 0 0 0
648 2 110 80 40 0 0 0 0 0 0
1894 3 115 80 40 0 0 0 0 0 0
649 2 120 80 40 0 0 0 0 0 0
1895 3 125 80 40 0 0 0 0 0 0
650 2 130 80 40 0 0 0 0 0 0
1896 3 135 80 40 0 0 0 0 0 0
651 2 140 80 40 0 0 0 0 0 0
1897 3 145 80 40 0 0 0 0 0 0
652 2 -10 90 40 0 0 0 0 0 0
1914 3 -5 90 40 0 0 0 0 0 0
653 2 0 90 40 0 0 0 0 0 0
1915 3 5 90 40 0 0 0 0 0 0
654 2 10 90 40 0 0 0 0 0 0
1900 3 15 90 40 0 0 0 0 0 0
655 2 20 90 40 0 0 0 0 0 0
1901 3 25 90 40 0 0 0 0 0 0
656 2 30 90 40 0 0 0 0 0 0
1902 3 35 90 40 0 0 0 0 0 0
657 2 40 90 40 0 0 0 0 0 0
1903 3 45 90 40 0 0 0 0 0 0
658 2 50 90 40 0 0 0 0 0 0
1904 3 55 90 40 0 0 0 0 0 0
659 2 60 90 40 0 0 0 0 0 0
1905 3 65 90 40 0 0 0 0 0 0
660 2 70 90 40 0 0 0 0 0 0
1906 3 75 90 40 0 0 0 0 0 0
661 2 80 90 40 0 0 0 0 0 0
1907 3 85 90 40 0 0 0 0 0 0
662 2 90 90 40 0 0 0 0 0 0
1908 3 95 90 40 0 0 0 0 0 0
663 2 100 90 40 0 0 0 0 0 0
1909 3 105 90 40 0 0 0 0 0 0
664 2 110 90 40 0 0 0 0 0 0
1910 3 115 90 40 0 0 0 0 0 0
665 2 120 90 40 0 0 0 0 0 0
1911 3 125 90 40 0 0 0 0 0 0
666 2 130 90 40 0 0 0 0 0 0
1912 3 135 90 40 0 0 0 0 0 0
667 2 140 90 40 0 0 0 0 0 0
1913 3 145 90 40 0 0 0 0 0 0
668 2 -10 100 40 0 0 0 0 0 0
1930 3 -5 100 40 0 0 0 0 0 0
669 2 0 100 40 0 0 0 0 0 0
1931 3 5 100 40 0 0 0 0 0 0
670 2 10 100 40 0 0 0 0 0 0
1916 3 15 100 40 0 0 0 0 0 0
671 2 20 100 40 0 0 0 0 0 0
1917 3 25 100 40 0 0 0 0 0 0
672 2 30 100 40 0 0 0 0 0 0
1918 3 35 100 40 0 0 0 0 0 0
673 2 40 100 40 0 0 0 0 0 0
1919 3 45 100 40 0 0 0 0 0 0
674 2 50 100 40 0 0 0 0 0 0
1920 3 55 100 40 0 0 0 0 0 0