ECM.data

10 atoms
1 atom types
1 bond types
1 angle types
1 dihedral types
0.0 100 xlo xhi
0.0 100 ylo yhi
0.0 100 zlo zhi

Atoms

1 1 1 None 
2 1 1 None 
3 1 1 None 
4 1 1 None 
5 1 1 None 
6 1 1 None 
7 1 1 None 
8 1 1 None 
9 1 1 None 
10 1 1 None 

