LAMMPS data file via write_data, version 2 Jun 2022, timestep = 0

930 atoms
3 atom types
2184 bonds
1 bond types

0 100 xlo xhi
0 100 ylo yhi
0 100 zlo zhi

Masses

1 1
2 1
3 1

Atoms # molecular

1 1 1 40 50 50 0 0 0
2 1 1 41 46 49 0 0 0
3 1 1 41 46 50 0 0 0
4 1 1 41 46 51 0 0 0
5 1 1 41 47 47 0 0 0
6 1 1 41 47 48 0 0 0
7 1 1 41 47 49 0 0 0
8 1 1 41 47 50 0 0 0
9 1 1 41 47 51 0 0 0
10 1 1 41 47 52 0 0 0
11 1 1 41 47 53 0 0 0
12 1 1 41 48 47 0 0 0
13 1 1 41 48 48 0 0 0
14 1 1 41 48 49 0 0 0
15 1 1 41 48 50 0 0 0
16 1 1 41 48 51 0 0 0
17 1 1 41 48 52 0 0 0
18 1 1 41 48 53 0 0 0
19 1 1 41 49 46 0 0 0
20 1 1 41 49 47 0 0 0
21 1 1 41 49 48 0 0 0
22 1 1 41 49 52 0 0 0
23 1 1 41 49 53 0 0 0
24 1 1 41 49 54 0 0 0
25 1 1 41 50 46 0 0 0
26 1 1 41 50 47 0 0 0
27 1 1 41 50 48 0 0 0
28 1 1 41 50 52 0 0 0
29 1 1 41 50 53 0 0 0
30 1 1 41 50 54 0 0 0
31 1 1 41 51 46 0 0 0
32 1 1 41 51 47 0 0 0
33 1 1 41 51 48 0 0 0
34 1 1 41 51 52 0 0 0
35 1 1 41 51 53 0 0 0
36 1 1 41 51 54 0 0 0
37 1 1 41 52 47 0 0 0
38 1 1 41 52 48 0 0 0
39 1 1 41 52 49 0 0 0
40 1 1 41 52 50 0 0 0
41 1 1 41 52 51 0 0 0
42 1 1 41 52 52 0 0 0
43 1 1 41 52 53 0 0 0
44 1 1 41 53 47 0 0 0
45 1 1 41 53 48 0 0 0
46 1 1 41 53 49 0 0 0
47 1 1 41 53 50 0 0 0
48 1 1 41 53 51 0 0 0
49 1 1 41 53 52 0 0 0
50 1 1 41 53 53 0 0 0
51 1 1 41 54 49 0 0 0
52 1 1 41 54 50 0 0 0
53 1 1 41 54 51 0 0 0
54 1 1 42 44 50 0 0 0
55 1 1 42 45 47 0 0 0
56 1 1 42 45 48 0 0 0
57 1 1 42 45 49 0 0 0
58 1 1 42 45 50 0 0 0
59 1 1 42 45 51 0 0 0
60 1 1 42 45 52 0 0 0
61 1 1 42 45 53 0 0 0
62 1 1 42 46 46 0 0 0
63 1 1 42 46 47 0 0 0
64 1 1 42 46 53 0 0 0
65 1 1 42 46 54 0 0 0
66 1 1 42 47 45 0 0 0
67 1 1 42 47 46 0 0 0
68 1 1 42 47 54 0 0 0
69 1 1 42 47 55 0 0 0
70 1 1 42 48 45 0 0 0
71 1 1 42 48 55 0 0 0
72 1 1 42 49 45 0 0 0
73 1 1 42 49 55 0 0 0
74 1 1 42 50 44 0 0 0
75 1 1 42 50 45 0 0 0
76 1 1 42 50 55 0 0 0
77 1 1 42 50 56 0 0 0
78 1 1 42 51 45 0 0 0
79 1 1 42 51 55 0 0 0
80 1 1 42 52 45 0 0 0
81 1 1 42 52 55 0 0 0
82 1 1 42 53 45 0 0 0
83 1 1 42 53 46 0 0 0
84 1 1 42 53 54 0 0 0
85 1 1 42 53 55 0 0 0
86 1 1 42 54 46 0 0 0
87 1 1 42 54 47 0 0 0
88 1 1 42 54 53 0 0 0
89 1 1 42 54 54 0 0 0
90 1 1 42 55 47 0 0 0
91 1 1 42 55 48 0 0 0
92 1 1 42 55 49 0 0 0
93 1 1 42 55 50 0 0 0
94 1 1 42 55 51 0 0 0
95 1 1 42 55 52 0 0 0
96 1 1 42 55 53 0 0 0
97 1 1 42 56 50 0 0 0
98 1 1 43 43 49 0 0 0
99 1 1 43 43 50 0 0 0
100 1 1 43 43 51 0 0 0
101 1 1 43 44 47 0 0 0
102 1 1 43 44 48 0 0 0
103 1 1 43 44 49 0 0 0
104 1 1 43 44 50 0 0 0
105 1 1 43 44 51 0 0 0
106 1 1 43 44 52 0 0 0
107 1 1 43 44 53 0 0 0
108 1 1 43 45 45 0 0 0
109 1 1 43 45 46 0 0 0
110 1 1 43 45 54 0 0 0
111 1 1 43 45 55 0 0 0
112 1 1 43 46 45 0 0 0
113 1 1 43 46 55 0 0 0
114 1 1 43 47 44 0 0 0
115 1 1 43 47 56 0 0 0
116 1 1 43 48 44 0 0 0
117 1 1 43 48 56 0 0 0
118 1 1 43 49 43 0 0 0
119 1 1 43 49 44 0 0 0
120 1 1 43 49 56 0 0 0
121 1 1 43 49 57 0 0 0
122 1 1 43 50 43 0 0 0
123 1 1 43 50 44 0 0 0
124 1 1 43 50 56 0 0 0
125 1 1 43 50 57 0 0 0
126 1 1 43 51 43 0 0 0
127 1 1 43 51 44 0 0 0
128 1 1 43 51 56 0 0 0
129 1 1 43 51 57 0 0 0
130 1 1 43 52 44 0 0 0
131 1 1 43 52 56 0 0 0
132 1 1 43 53 44 0 0 0
133 1 1 43 53 56 0 0 0
134 1 1 43 54 45 0 0 0
135 1 1 43 54 55 0 0 0
136 1 1 43 55 45 0 0 0
137 1 1 43 55 46 0 0 0
138 1 1 43 55 54 0 0 0
139 1 1 43 55 55 0 0 0
140 1 1 43 56 47 0 0 0
141 1 1 43 56 48 0 0 0
142 1 1 43 56 49 0 0 0
143 1 1 43 56 50 0 0 0
144 1 1 43 56 51 0 0 0
145 1 1 43 56 52 0 0 0
146 1 1 43 56 53 0 0 0
147 1 1 43 57 49 0 0 0
148 1 1 43 57 50 0 0 0
149 1 1 43 57 51 0 0 0
150 1 1 44 42 50 0 0 0
151 1 1 44 43 47 0 0 0
152 1 1 44 43 48 0 0 0
153 1 1 44 43 49 0 0 0
154 1 1 44 43 50 0 0 0
155 1 1 44 43 51 0 0 0
156 1 1 44 43 52 0 0 0
157 1 1 44 43 53 0 0 0
158 1 1 44 44 45 0 0 0
159 1 1 44 44 46 0 0 0
160 1 1 44 44 54 0 0 0
161 1 1 44 44 55 0 0 0
162 1 1 44 45 44 0 0 0
163 1 1 44 45 45 0 0 0
164 1 1 44 45 55 0 0 0
165 1 1 44 45 56 0 0 0
166 1 1 44 46 44 0 0 0
167 1 1 44 46 56 0 0 0
168 1 1 44 47 43 0 0 0
169 1 1 44 47 57 0 0 0
170 1 1 44 48 43 0 0 0
171 1 1 44 48 57 0 0 0
172 1 1 44 49 43 0 0 0
173 1 1 44 49 57 0 0 0
174 1 1 44 50 42 0 0 0
175 1 1 44 50 43 0 0 0
176 1 1 44 50 57 0 0 0
177 1 1 44 50 58 0 0 0
178 1 1 44 51 43 0 0 0
179 1 1 44 51 57 0 0 0
180 1 1 44 52 43 0 0 0
181 1 1 44 52 57 0 0 0
182 1 1 44 53 43 0 0 0
183 1 1 44 53 57 0 0 0
184 1 1 44 54 44 0 0 0
185 1 1 44 54 56 0 0 0
186 1 1 44 55 44 0 0 0
187 1 1 44 55 45 0 0 0
188 1 1 44 55 55 0 0 0
189 1 1 44 55 56 0 0 0
190 1 1 44 56 45 0 0 0
191 1 1 44 56 46 0 0 0
192 1 1 44 56 54 0 0 0
193 1 1 44 56 55 0 0 0
194 1 1 44 57 47 0 0 0
195 1 1 44 57 48 0 0 0
196 1 1 44 57 49 0 0 0
197 1 1 44 57 50 0 0 0
198 1 1 44 57 51 0 0 0
199 1 1 44 57 52 0 0 0
200 1 1 44 57 53 0 0 0
201 1 1 44 58 50 0 0 0
202 1 1 45 42 47 0 0 0
203 1 1 45 42 48 0 0 0
204 1 1 45 42 49 0 0 0
205 1 1 45 42 50 0 0 0
206 1 1 45 42 51 0 0 0
207 1 1 45 42 52 0 0 0
208 1 1 45 42 53 0 0 0
209 1 1 45 43 45 0 0 0
210 1 1 45 43 46 0 0 0
211 1 1 45 43 54 0 0 0
212 1 1 45 43 55 0 0 0
213 1 1 45 44 44 0 0 0
214 1 1 45 44 45 0 0 0
215 1 1 45 44 55 0 0 0
216 1 1 45 44 56 0 0 0
217 1 1 45 45 43 0 0 0
218 1 1 45 45 44 0 0 0
219 1 1 45 45 56 0 0 0
220 1 1 45 45 57 0 0 0
221 1 1 45 46 43 0 0 0
222 1 1 45 46 57 0 0 0
223 1 1 45 47 42 0 0 0
224 1 1 45 47 58 0 0 0
225 1 1 45 48 42 0 0 0
226 1 1 45 48 58 0 0 0
227 1 1 45 49 42 0 0 0
228 1 1 45 49 58 0 0 0
229 1 1 45 50 42 0 0 0
230 1 1 45 50 58 0 0 0
231 1 1 45 51 42 0 0 0
232 1 1 45 51 58 0 0 0
233 1 1 45 52 42 0 0 0
234 1 1 45 52 58 0 0 0
235 1 1 45 53 42 0 0 0
236 1 1 45 53 58 0 0 0
237 1 1 45 54 43 0 0 0
238 1 1 45 54 57 0 0 0
239 1 1 45 55 43 0 0 0
240 1 1 45 55 44 0 0 0
241 1 1 45 55 56 0 0 0
242 1 1 45 55 57 0 0 0
243 1 1 45 56 44 0 0 0
244 1 1 45 56 45 0 0 0
245 1 1 45 56 55 0 0 0
246 1 1 45 56 56 0 0 0
247 1 1 45 57 45 0 0 0
248 1 1 45 57 46 0 0 0
249 1 1 45 57 54 0 0 0
250 1 1 45 57 55 0 0 0
251 1 1 45 58 47 0 0 0
252 1 1 45 58 48 0 0 0
253 1 1 45 58 49 0 0 0
254 1 1 45 58 50 0 0 0
255 1 1 45 58 51 0 0 0
256 1 1 45 58 52 0 0 0
257 1 1 45 58 53 0 0 0
258 1 1 46 41 49 0 0 0
259 1 1 46 41 50 0 0 0
260 1 1 46 41 51 0 0 0
261 1 1 46 42 46 0 0 0
262 1 1 46 42 47 0 0 0
263 1 1 46 42 53 0 0 0
264 1 1 46 42 54 0 0 0
265 1 1 46 43 45 0 0 0
266 1 1 46 43 55 0 0 0
267 1 1 46 44 44 0 0 0
268 1 1 46 44 56 0 0 0
269 1 1 46 45 43 0 0 0
270 1 1 46 45 57 0 0 0
271 1 1 46 46 42 0 0 0
272 1 1 46 46 58 0 0 0
273 1 1 46 47 42 0 0 0
274 1 1 46 47 58 0 0 0
275 1 1 46 49 41 0 0 0
276 1 1 46 49 59 0 0 0
277 1 1 46 50 41 0 0 0
278 1 1 46 50 59 0 0 0
279 1 1 46 51 41 0 0 0
280 1 1 46 51 59 0 0 0
281 1 1 46 53 42 0 0 0
282 1 1 46 53 58 0 0 0
283 1 1 46 54 42 0 0 0
284 1 1 46 54 58 0 0 0
285 1 1 46 55 43 0 0 0
286 1 1 46 55 57 0 0 0
287 1 1 46 56 44 0 0 0
288 1 1 46 56 56 0 0 0
289 1 1 46 57 45 0 0 0
290 1 1 46 57 55 0 0 0
291 1 1 46 58 46 0 0 0
292 1 1 46 58 47 0 0 0
293 1 1 46 58 53 0 0 0
294 1 1 46 58 54 0 0 0
295 1 1 46 59 49 0 0 0
296 1 1 46 59 50 0 0 0
297 1 1 46 59 51 0 0 0
298 1 1 47 41 47 0 0 0
299 1 1 47 41 48 0 0 0
300 1 1 47 41 49 0 0 0
301 1 1 47 41 50 0 0 0
302 1 1 47 41 51 0 0 0
303 1 1 47 41 52 0 0 0
304 1 1 47 41 53 0 0 0
305 1 1 47 42 45 0 0 0
306 1 1 47 42 46 0 0 0
307 1 1 47 42 54 0 0 0
308 1 1 47 42 55 0 0 0
309 1 1 47 43 44 0 0 0
310 1 1 47 43 56 0 0 0
311 1 1 47 44 43 0 0 0
312 1 1 47 44 57 0 0 0
313 1 1 47 45 42 0 0 0
314 1 1 47 45 58 0 0 0
315 1 1 47 46 42 0 0 0
316 1 1 47 46 58 0 0 0
317 1 1 47 47 41 0 0 0
318 1 1 47 47 59 0 0 0
319 1 1 47 48 41 0 0 0
320 1 1 47 48 59 0 0 0
321 1 1 47 49 41 0 0 0
322 1 1 47 49 59 0 0 0
323 1 1 47 50 41 0 0 0
324 1 1 47 50 59 0 0 0
325 1 1 47 51 41 0 0 0
326 1 1 47 51 59 0 0 0
327 1 1 47 52 41 0 0 0
328 1 1 47 52 59 0 0 0
329 1 1 47 53 41 0 0 0
330 1 1 47 53 59 0 0 0
331 1 1 47 54 42 0 0 0
332 1 1 47 54 58 0 0 0
333 1 1 47 55 42 0 0 0
334 1 1 47 55 58 0 0 0
335 1 1 47 56 43 0 0 0
336 1 1 47 56 57 0 0 0
337 1 1 47 57 44 0 0 0
338 1 1 47 57 56 0 0 0
339 1 1 47 58 45 0 0 0
340 1 1 47 58 46 0 0 0
341 1 1 47 58 54 0 0 0
342 1 1 47 58 55 0 0 0
343 1 1 47 59 47 0 0 0
344 1 1 47 59 48 0 0 0
345 1 1 47 59 49 0 0 0
346 1 1 47 59 50 0 0 0
347 1 1 47 59 51 0 0 0
348 1 1 47 59 52 0 0 0
349 1 1 47 59 53 0 0 0
350 1 1 48 41 47 0 0 0
351 1 1 48 41 48 0 0 0
352 1 1 48 41 49 0 0 0
353 1 1 48 41 50 0 0 0
354 1 1 48 41 51 0 0 0
355 1 1 48 41 52 0 0 0
356 1 1 48 41 53 0 0 0
357 1 1 48 42 45 0 0 0
358 1 1 48 42 55 0 0 0
359 1 1 48 43 44 0 0 0
360 1 1 48 43 56 0 0 0
361 1 1 48 44 43 0 0 0
362 1 1 48 44 57 0 0 0
363 1 1 48 45 42 0 0 0
364 1 1 48 45 58 0 0 0
365 1 1 48 47 41 0 0 0
366 1 1 48 47 59 0 0 0
367 1 1 48 48 41 0 0 0
368 1 1 48 48 59 0 0 0
369 1 1 48 49 41 0 0 0
370 1 1 48 49 59 0 0 0
371 1 1 48 50 41 0 0 0
372 1 1 48 50 59 0 0 0
373 1 1 48 51 41 0 0 0
374 1 1 48 51 59 0 0 0
375 1 1 48 52 41 0 0 0
376 1 1 48 52 59 0 0 0
377 1 1 48 53 41 0 0 0
378 1 1 48 53 59 0 0 0
379 1 1 48 55 42 0 0 0
380 1 1 48 55 58 0 0 0
381 1 1 48 56 43 0 0 0
382 1 1 48 56 57 0 0 0
383 1 1 48 57 44 0 0 0
384 1 1 48 57 56 0 0 0
385 1 1 48 58 45 0 0 0
386 1 1 48 58 55 0 0 0
387 1 1 48 59 47 0 0 0
388 1 1 48 59 48 0 0 0
389 1 1 48 59 49 0 0 0
390 1 1 48 59 50 0 0 0
391 1 1 48 59 51 0 0 0
392 1 1 48 59 52 0 0 0
393 1 1 48 59 53 0 0 0
394 1 1 49 41 46 0 0 0
395 1 1 49 41 47 0 0 0
396 1 1 49 41 48 0 0 0
397 1 1 49 41 52 0 0 0
398 1 1 49 41 53 0 0 0
399 1 1 49 41 54 0 0 0
400 1 1 49 42 45 0 0 0
401 1 1 49 42 55 0 0 0
402 1 1 49 43 43 0 0 0
403 1 1 49 43 44 0 0 0
404 1 1 49 43 56 0 0 0
405 1 1 49 43 57 0 0 0
406 1 1 49 44 43 0 0 0
407 1 1 49 44 57 0 0 0
408 1 1 49 45 42 0 0 0
409 1 1 49 45 58 0 0 0
410 1 1 49 46 41 0 0 0
411 1 1 49 46 59 0 0 0
412 1 1 49 47 41 0 0 0
413 1 1 49 47 59 0 0 0
414 1 1 49 48 41 0 0 0
415 1 1 49 48 59 0 0 0
416 1 1 49 52 41 0 0 0
417 1 1 49 52 59 0 0 0
418 1 1 49 53 41 0 0 0
419 1 1 49 53 59 0 0 0
420 1 1 49 54 41 0 0 0
421 1 1 49 54 59 0 0 0
422 1 1 49 55 42 0 0 0
423 1 1 49 55 58 0 0 0
424 1 1 49 56 43 0 0 0
425 1 1 49 56 57 0 0 0
426 1 1 49 57 43 0 0 0
427 1 1 49 57 44 0 0 0
428 1 1 49 57 56 0 0 0
429 1 1 49 57 57 0 0 0
430 1 1 49 58 45 0 0 0
431 1 1 49 58 55 0 0 0
432 1 1 49 59 46 0 0 0
433 1 1 49 59 47 0 0 0
434 1 1 49 59 48 0 0 0
435 1 1 49 59 52 0 0 0
436 1 1 49 59 53 0 0 0
437 1 1 49 59 54 0 0 0
438 1 1 50 40 50 0 0 0
439 1 1 50 41 46 0 0 0
440 1 1 50 41 47 0 0 0
441 1 1 50 41 48 0 0 0
442 1 1 50 41 52 0 0 0
443 1 1 50 41 53 0 0 0
444 1 1 50 41 54 0 0 0
445 1 1 50 42 44 0 0 0
446 1 1 50 42 45 0 0 0
447 1 1 50 42 55 0 0 0
448 1 1 50 42 56 0 0 0
449 1 1 50 43 43 0 0 0
450 1 1 50 43 44 0 0 0
451 1 1 50 43 56 0 0 0
452 1 1 50 43 57 0 0 0
453 1 1 50 44 42 0 0 0
454 1 1 50 44 43 0 0 0
455 1 1 50 44 57 0 0 0
456 1 1 50 44 58 0 0 0
457 1 1 50 45 42 0 0 0
458 1 1 50 45 58 0 0 0
459 1 1 50 46 41 0 0 0
460 1 1 50 46 59 0 0 0
461 1 1 50 47 41 0 0 0
462 1 1 50 47 59 0 0 0
463 1 1 50 48 41 0 0 0
464 1 1 50 48 59 0 0 0
465 1 1 50 50 40 0 0 0
466 1 1 50 50 60 0 0 0
467 1 1 50 52 41 0 0 0
468 1 1 50 52 59 0 0 0
469 1 1 50 53 41 0 0 0
470 1 1 50 53 59 0 0 0
471 1 1 50 54 41 0 0 0
472 1 1 50 54 59 0 0 0
473 1 1 50 55 42 0 0 0
474 1 1 50 55 58 0 0 0
475 1 1 50 56 42 0 0 0
476 1 1 50 56 43 0 0 0
477 1 1 50 56 57 0 0 0
478 1 1 50 56 58 0 0 0
479 1 1 50 57 43 0 0 0
480 1 1 50 57 44 0 0 0
481 1 1 50 57 56 0 0 0
482 1 1 50 57 57 0 0 0
483 1 1 50 58 44 0 0 0
484 1 1 50 58 45 0 0 0
485 1 1 50 58 55 0 0 0
486 1 1 50 58 56 0 0 0
487 1 1 50 59 46 0 0 0
488 1 1 50 59 47 0 0 0
489 1 1 50 59 48 0 0 0
490 1 1 50 59 52 0 0 0
491 1 1 50 59 53 0 0 0
492 1 1 50 59 54 0 0 0
493 1 1 50 60 50 0 0 0
494 1 1 51 41 46 0 0 0
495 1 1 51 41 47 0 0 0
496 1 1 51 41 48 0 0 0
497 1 1 51 41 52 0 0 0
498 1 1 51 41 53 0 0 0
499 1 1 51 41 54 0 0 0
500 1 1 51 42 45 0 0 0
501 1 1 51 42 55 0 0 0
502 1 1 51 43 43 0 0 0
503 1 1 51 43 44 0 0 0
504 1 1 51 43 56 0 0 0
505 1 1 51 43 57 0 0 0
506 1 1 51 44 43 0 0 0
507 1 1 51 44 57 0 0 0
508 1 1 51 45 42 0 0 0
509 1 1 51 45 58 0 0 0
510 1 1 51 46 41 0 0 0
511 1 1 51 46 59 0 0 0
512 1 1 51 47 41 0 0 0
513 1 1 51 47 59 0 0 0
514 1 1 51 48 41 0 0 0
515 1 1 51 48 59 0 0 0
516 1 1 51 52 41 0 0 0
517 1 1 51 52 59 0 0 0
518 1 1 51 53 41 0 0 0
519 1 1 51 53 59 0 0 0
520 1 1 51 54 41 0 0 0
521 1 1 51 54 59 0 0 0
522 1 1 51 55 42 0 0 0
523 1 1 51 55 58 0 0 0
524 1 1 51 56 43 0 0 0
525 1 1 51 56 57 0 0 0
526 1 1 51 57 43 0 0 0
527 1 1 51 57 44 0 0 0
528 1 1 51 57 56 0 0 0
529 1 1 51 57 57 0 0 0
530 1 1 51 58 45 0 0 0
531 1 1 51 58 55 0 0 0
532 1 1 51 59 46 0 0 0
533 1 1 51 59 47 0 0 0
534 1 1 51 59 48 0 0 0
535 1 1 51 59 52 0 0 0
536 1 1 51 59 53 0 0 0
537 1 1 51 59 54 0 0 0
538 1 1 52 41 47 0 0 0
539 1 1 52 41 48 0 0 0
540 1 1 52 41 49 0 0 0
541 1 1 52 41 50 0 0 0
542 1 1 52 41 51 0 0 0
543 1 1 52 41 52 0 0 0
544 1 1 52 41 53 0 0 0
545 1 1 52 42 45 0 0 0
546 1 1 52 42 55 0 0 0
547 1 1 52 43 44 0 0 0
548 1 1 52 43 56 0 0 0
549 1 1 52 44 43 0 0 0
550 1 1 52 44 57 0 0 0
551 1 1 52 45 42 0 0 0
552 1 1 52 45 58 0 0 0
553 1 1 52 47 41 0 0 0
554 1 1 52 47 59 0 0 0
555 1 1 52 48 41 0 0 0
556 1 1 52 48 59 0 0 0
557 1 1 52 49 41 0 0 0
558 1 1 52 49 59 0 0 0
559 1 1 52 50 41 0 0 0
560 1 1 52 50 59 0 0 0
561 1 1 52 51 41 0 0 0
562 1 1 52 51 59 0 0 0
563 1 1 52 52 41 0 0 0
564 1 1 52 52 59 0 0 0
565 1 1 52 53 41 0 0 0
566 1 1 52 53 59 0 0 0
567 1 1 52 55 42 0 0 0
568 1 1 52 55 58 0 0 0
569 1 1 52 56 43 0 0 0
570 1 1 52 56 57 0 0 0
571 1 1 52 57 44 0 0 0
572 1 1 52 57 56 0 0 0
573 1 1 52 58 45 0 0 0
574 1 1 52 58 55 0 0 0
575 1 1 52 59 47 0 0 0
576 1 1 52 59 48 0 0 0
577 1 1 52 59 49 0 0 0
578 1 1 52 59 50 0 0 0
579 1 1 52 59 51 0 0 0
580 1 1 52 59 52 0 0 0
581 1 1 52 59 53 0 0 0
582 1 1 53 41 47 0 0 0
583 1 1 53 41 48 0 0 0
584 1 1 53 41 49 0 0 0
585 1 1 53 41 50 0 0 0
586 1 1 53 41 51 0 0 0
587 1 1 53 41 52 0 0 0
588 1 1 53 41 53 0 0 0
589 1 1 53 42 45 0 0 0
590 1 1 53 42 46 0 0 0
591 1 1 53 42 54 0 0 0
592 1 1 53 42 55 0 0 0
593 1 1 53 43 44 0 0 0
594 1 1 53 43 56 0 0 0
595 1 1 53 44 43 0 0 0
596 1 1 53 44 57 0 0 0
597 1 1 53 45 42 0 0 0
598 1 1 53 45 58 0 0 0
599 1 1 53 46 42 0 0 0
600 1 1 53 46 58 0 0 0
601 1 1 53 47 41 0 0 0
602 1 1 53 47 59 0 0 0
603 1 1 53 48 41 0 0 0
604 1 1 53 48 59 0 0 0
605 1 1 53 49 41 0 0 0
606 1 1 53 49 59 0 0 0
607 1 1 53 50 41 0 0 0
608 1 1 53 50 59 0 0 0
609 1 1 53 51 41 0 0 0
610 1 1 53 51 59 0 0 0
611 1 1 53 52 41 0 0 0
612 1 1 53 52 59 0 0 0
613 1 1 53 53 41 0 0 0
614 1 1 53 53 59 0 0 0
615 1 1 53 54 42 0 0 0
616 1 1 53 54 58 0 0 0
617 1 1 53 55 42 0 0 0
618 1 1 53 55 58 0 0 0
619 1 1 53 56 43 0 0 0
620 1 1 53 56 57 0 0 0
621 1 1 53 57 44 0 0 0
622 1 1 53 57 56 0 0 0
623 1 1 53 58 45 0 0 0
624 1 1 53 58 46 0 0 0
625 1 1 53 58 54 0 0 0
626 1 1 53 58 55 0 0 0
627 1 1 53 59 47 0 0 0
628 1 1 53 59 48 0 0 0
629 1 1 53 59 49 0 0 0
630 1 1 53 59 50 0 0 0
631 1 1 53 59 51 0 0 0
632 1 1 53 59 52 0 0 0
633 1 1 53 59 53 0 0 0
634 1 1 54 41 49 0 0 0
635 1 1 54 41 50 0 0 0
636 1 1 54 41 51 0 0 0
637 1 1 54 42 46 0 0 0
638 1 1 54 42 47 0 0 0
639 1 1 54 42 53 0 0 0
640 1 1 54 42 54 0 0 0
641 1 1 54 43 45 0 0 0
642 1 1 54 43 55 0 0 0
643 1 1 54 44 44 0 0 0
644 1 1 54 44 56 0 0 0
645 1 1 54 45 43 0 0 0
646 1 1 54 45 57 0 0 0
647 1 1 54 46 42 0 0 0
648 1 1 54 46 58 0 0 0
649 1 1 54 47 42 0 0 0
650 1 1 54 47 58 0 0 0
651 1 1 54 49 41 0 0 0
652 1 1 54 49 59 0 0 0
653 1 1 54 50 41 0 0 0
654 1 1 54 50 59 0 0 0
655 1 1 54 51 41 0 0 0
656 1 1 54 51 59 0 0 0
657 1 1 54 53 42 0 0 0
658 1 1 54 53 58 0 0 0
659 1 1 54 54 42 0 0 0
660 1 1 54 54 58 0 0 0
661 1 1 54 55 43 0 0 0
662 1 1 54 55 57 0 0 0
663 1 1 54 56 44 0 0 0
664 1 1 54 56 56 0 0 0
665 1 1 54 57 45 0 0 0
666 1 1 54 57 55 0 0 0
667 1 1 54 58 46 0 0 0
668 1 1 54 58 47 0 0 0
669 1 1 54 58 53 0 0 0
670 1 1 54 58 54 0 0 0
671 1 1 54 59 49 0 0 0
672 1 1 54 59 50 0 0 0
673 1 1 54 59 51 0 0 0
674 1 1 55 42 47 0 0 0
675 1 1 55 42 48 0 0 0
676 1 1 55 42 49 0 0 0
677 1 1 55 42 50 0 0 0
678 1 1 55 42 51 0 0 0
679 1 1 55 42 52 0 0 0
680 1 1 55 42 53 0 0 0
681 1 1 55 43 45 0 0 0
682 1 1 55 43 46 0 0 0
683 1 1 55 43 54 0 0 0
684 1 1 55 43 55 0 0 0
685 1 1 55 44 44 0 0 0
686 1 1 55 44 45 0 0 0
687 1 1 55 44 55 0 0 0
688 1 1 55 44 56 0 0 0
689 1 1 55 45 43 0 0 0
690 1 1 55 45 44 0 0 0
691 1 1 55 45 56 0 0 0
692 1 1 55 45 57 0 0 0
693 1 1 55 46 43 0 0 0
694 1 1 55 46 57 0 0 0
695 1 1 55 47 42 0 0 0
696 1 1 55 47 58 0 0 0
697 1 1 55 48 42 0 0 0
698 1 1 55 48 58 0 0 0
699 1 1 55 49 42 0 0 0
700 1 1 55 49 58 0 0 0
701 1 1 55 50 42 0 0 0
702 1 1 55 50 58 0 0 0
703 1 1 55 51 42 0 0 0
704 1 1 55 51 58 0 0 0
705 1 1 55 52 42 0 0 0
706 1 1 55 52 58 0 0 0
707 1 1 55 53 42 0 0 0
708 1 1 55 53 58 0 0 0
709 1 1 55 54 43 0 0 0
710 1 1 55 54 57 0 0 0
711 1 1 55 55 43 0 0 0
712 1 1 55 55 44 0 0 0
713 1 1 55 55 56 0 0 0
714 1 1 55 55 57 0 0 0
715 1 1 55 56 44 0 0 0
716 1 1 55 56 45 0 0 0
717 1 1 55 56 55 0 0 0
718 1 1 55 56 56 0 0 0
719 1 1 55 57 45 0 0 0
720 1 1 55 57 46 0 0 0
721 1 1 55 57 54 0 0 0
722 1 1 55 57 55 0 0 0
723 1 1 55 58 47 0 0 0
724 1 1 55 58 48 0 0 0
725 1 1 55 58 49 0 0 0
726 1 1 55 58 50 0 0 0
727 1 1 55 58 51 0 0 0
728 1 1 55 58 52 0 0 0
729 1 1 55 58 53 0 0 0
730 1 1 56 42 50 0 0 0
731 1 1 56 43 47 0 0 0
732 1 1 56 43 48 0 0 0
733 1 1 56 43 49 0 0 0
734 1 1 56 43 50 0 0 0
735 1 1 56 43 51 0 0 0
736 1 1 56 43 52 0 0 0
737 1 1 56 43 53 0 0 0
738 1 1 56 44 45 0 0 0
739 1 1 56 44 46 0 0 0
740 1 1 56 44 54 0 0 0
741 1 1 56 44 55 0 0 0
742 1 1 56 45 44 0 0 0
743 1 1 56 45 45 0 0 0
744 1 1 56 45 55 0 0 0
745 1 1 56 45 56 0 0 0
746 1 1 56 46 44 0 0 0
747 1 1 56 46 56 0 0 0
748 1 1 56 47 43 0 0 0
749 1 1 56 47 57 0 0 0
750 1 1 56 48 43 0 0 0
751 1 1 56 48 57 0 0 0
752 1 1 56 49 43 0 0 0
753 1 1 56 49 57 0 0 0
754 1 1 56 50 42 0 0 0
755 1 1 56 50 43 0 0 0
756 1 1 56 50 57 0 0 0
757 1 1 56 50 58 0 0 0
758 1 1 56 51 43 0 0 0
759 1 1 56 51 57 0 0 0
760 1 1 56 52 43 0 0 0
761 1 1 56 52 57 0 0 0
762 1 1 56 53 43 0 0 0
763 1 1 56 53 57 0 0 0
764 1 1 56 54 44 0 0 0
765 1 1 56 54 56 0 0 0
766 1 1 56 55 44 0 0 0
767 1 1 56 55 45 0 0 0
768 1 1 56 55 55 0 0 0
769 1 1 56 55 56 0 0 0
770 1 1 56 56 45 0 0 0
771 1 1 56 56 46 0 0 0
772 1 1 56 56 54 0 0 0
773 1 1 56 56 55 0 0 0
774 1 1 56 57 47 0 0 0
775 1 1 56 57 48 0 0 0
776 1 1 56 57 49 0 0 0
777 1 1 56 57 50 0 0 0
778 1 1 56 57 51 0 0 0
779 1 1 56 57 52 0 0 0
780 1 1 56 57 53 0 0 0
781 1 1 56 58 50 0 0 0
782 1 1 57 43 49 0 0 0
783 1 1 57 43 50 0 0 0
784 1 1 57 43 51 0 0 0
785 1 1 57 44 47 0 0 0
786 1 1 57 44 48 0 0 0
787 1 1 57 44 49 0 0 0
788 1 1 57 44 50 0 0 0
789 1 1 57 44 51 0 0 0
790 1 1 57 44 52 0 0 0
791 1 1 57 44 53 0 0 0
792 1 1 57 45 45 0 0 0
793 1 1 57 45 46 0 0 0
794 1 1 57 45 54 0 0 0
795 1 1 57 45 55 0 0 0
796 1 1 57 46 45 0 0 0
797 1 1 57 46 55 0 0 0
798 1 1 57 47 44 0 0 0
799 1 1 57 47 56 0 0 0
800 1 1 57 48 44 0 0 0
801 1 1 57 48 56 0 0 0
802 1 1 57 49 43 0 0 0
803 1 1 57 49 44 0 0 0
804 1 1 57 49 56 0 0 0
805 1 1 57 49 57 0 0 0
806 1 1 57 50 43 0 0 0
807 1 1 57 50 44 0 0 0
808 1 1 57 50 56 0 0 0
809 1 1 57 50 57 0 0 0
810 1 1 57 51 43 0 0 0
811 1 1 57 51 44 0 0 0
812 1 1 57 51 56 0 0 0
813 1 1 57 51 57 0 0 0
814 1 1 57 52 44 0 0 0
815 1 1 57 52 56 0 0 0
816 1 1 57 53 44 0 0 0
817 1 1 57 53 56 0 0 0
818 1 1 57 54 45 0 0 0
819 1 1 57 54 55 0 0 0
820 1 1 57 55 45 0 0 0
821 1 1 57 55 46 0 0 0
822 1 1 57 55 54 0 0 0
823 1 1 57 55 55 0 0 0
824 1 1 57 56 47 0 0 0
825 1 1 57 56 48 0 0 0
826 1 1 57 56 49 0 0 0
827 1 1 57 56 50 0 0 0
828 1 1 57 56 51 0 0 0
829 1 1 57 56 52 0 0 0
830 1 1 57 56 53 0 0 0
831 1 1 57 57 49 0 0 0
832 1 1 57 57 50 0 0 0
833 1 1 57 57 51 0 0 0
834 1 1 58 44 50 0 0 0
835 1 1 58 45 47 0 0 0
836 1 1 58 45 48 0 0 0
837 1 1 58 45 49 0 0 0
838 1 1 58 45 50 0 0 0
839 1 1 58 45 51 0 0 0
840 1 1 58 45 52 0 0 0
841 1 1 58 45 53 0 0 0
842 1 1 58 46 46 0 0 0
843 1 1 58 46 47 0 0 0
844 1 1 58 46 53 0 0 0
845 1 1 58 46 54 0 0 0
846 1 1 58 47 45 0 0 0
847 1 1 58 47 46 0 0 0
848 1 1 58 47 54 0 0 0
849 1 1 58 47 55 0 0 0
850 1 1 58 48 45 0 0 0
851 1 1 58 48 55 0 0 0
852 1 1 58 49 45 0 0 0
853 1 1 58 49 55 0 0 0
854 1 1 58 50 44 0 0 0
855 1 1 58 50 45 0 0 0
856 1 1 58 50 55 0 0 0
857 1 1 58 50 56 0 0 0
858 1 1 58 51 45 0 0 0
859 1 1 58 51 55 0 0 0
860 1 1 58 52 45 0 0 0
861 1 1 58 52 55 0 0 0
862 1 1 58 53 45 0 0 0
863 1 1 58 53 46 0 0 0
864 1 1 58 53 54 0 0 0
865 1 1 58 53 55 0 0 0
866 1 1 58 54 46 0 0 0
867 1 1 58 54 47 0 0 0
868 1 1 58 54 53 0 0 0
869 1 1 58 54 54 0 0 0
870 1 1 58 55 47 0 0 0
871 1 1 58 55 48 0 0 0
872 1 1 58 55 49 0 0 0
873 1 1 58 55 50 0 0 0
874 1 1 58 55 51 0 0 0
875 1 1 58 55 52 0 0 0
876 1 1 58 55 53 0 0 0
877 1 1 58 56 50 0 0 0
878 1 1 59 46 49 0 0 0
879 1 1 59 46 50 0 0 0
880 1 1 59 46 51 0 0 0
881 1 1 59 47 47 0 0 0
882 1 1 59 47 48 0 0 0
883 1 1 59 47 49 0 0 0
884 1 1 59 47 50 0 0 0
885 1 1 59 47 51 0 0 0
886 1 1 59 47 52 0 0 0
887 1 1 59 47 53 0 0 0
888 1 1 59 48 47 0 0 0
889 1 1 59 48 48 0 0 0
890 1 1 59 48 49 0 0 0
891 1 1 59 48 50 0 0 0
892 1 1 59 48 51 0 0 0
893 1 1 59 48 52 0 0 0
894 1 1 59 48 53 0 0 0
895 1 1 59 49 46 0 0 0
896 1 1 59 49 47 0 0 0
897 1 1 59 49 48 0 0 0
898 1 1 59 49 52 0 0 0
899 1 1 59 49 53 0 0 0
900 1 1 59 49 54 0 0 0
901 1 1 59 50 46 0 0 0
902 1 1 59 50 47 0 0 0
903 1 1 59 50 48 0 0 0
904 1 1 59 50 52 0 0 0
905 1 1 59 50 53 0 0 0
906 1 1 59 50 54 0 0 0
907 1 1 59 51 46 0 0 0
908 1 1 59 51 47 0 0 0
909 1 1 59 51 48 0 0 0
910 1 1 59 51 52 0 0 0
911 1 1 59 51 53 0 0 0
912 1 1 59 51 54 0 0 0
913 1 1 59 52 47 0 0 0
914 1 1 59 52 48 0 0 0
915 1 1 59 52 49 0 0 0
916 1 1 59 52 50 0 0 0
917 1 1 59 52 51 0 0 0
918 1 1 59 52 52 0 0 0
919 1 1 59 52 53 0 0 0
920 1 1 59 53 47 0 0 0
921 1 1 59 53 48 0 0 0
922 1 1 59 53 49 0 0 0
923 1 1 59 53 50 0 0 0
924 1 1 59 53 51 0 0 0
925 1 1 59 53 52 0 0 0
926 1 1 59 53 53 0 0 0
927 1 1 59 54 49 0 0 0
928 1 1 59 54 50 0 0 0
929 1 1 59 54 51 0 0 0
930 1 1 60 50 50 0 0 0

Velocities

1 0 0 0
2 0 0 0
3 0 0 0
4 0 0 0
5 0 0 0
6 0 0 0
7 0 0 0
8 0 0 0
9 0 0 0
10 0 0 0
11 0 0 0
12 0 0 0
13 0 0 0
14 0 0 0
15 0 0 0
16 0 0 0
17 0 0 0
18 0 0 0
19 0 0 0
20 0 0 0
21 0 0 0
22 0 0 0
23 0 0 0
24 0 0 0
25 0 0 0
26 0 0 0
27 0 0 0
28 0 0 0
29 0 0 0
30 0 0 0
31 0 0 0
32 0 0 0
33 0 0 0
34 0 0 0
35 0 0 0
36 0 0 0
37 0 0 0
38 0 0 0
39 0 0 0
40 0 0 0
41 0 0 0
42 0 0 0
43 0 0 0
44 0 0 0
45 0 0 0
46 0 0 0
47 0 0 0
48 0 0 0
49 0 0 0
50 0 0 0
51 0 0 0
52 0 0 0
53 0 0 0
54 0 0 0
55 0 0 0
56 0 0 0
57 0 0 0
58 0 0 0
59 0 0 0
60 0 0 0
61 0 0 0
62 0 0 0
63 0 0 0
64 0 0 0
65 0 0 0
66 0 0 0
67 0 0 0
68 0 0 0
69 0 0 0
70 0 0 0
71 0 0 0
72 0 0 0
73 0 0 0
74 0 0 0
75 0 0 0
76 0 0 0
77 0 0 0
78 0 0 0
79 0 0 0
80 0 0 0
81 0 0 0
82 0 0 0
83 0 0 0
84 0 0 0
85 0 0 0
86 0 0 0
87 0 0 0
88 0 0 0
89 0 0 0
90 0 0 0
91 0 0 0
92 0 0 0
93 0 0 0
94 0 0 0
95 0 0 0
96 0 0 0
97 0 0 0
98 0 0 0
99 0 0 0
100 0 0 0
101 0 0 0
102 0 0 0
103 0 0 0
104 0 0 0
105 0 0 0
106 0 0 0
107 0 0 0
108 0 0 0
109 0 0 0
110 0 0 0
111 0 0 0
112 0 0 0
113 0 0 0
114 0 0 0
115 0 0 0
116 0 0 0
117 0 0 0
118 0 0 0
119 0 0 0
120 0 0 0
121 0 0 0
122 0 0 0
123 0 0 0
124 0 0 0
125 0 0 0
126 0 0 0
127 0 0 0
128 0 0 0
129 0 0 0
130 0 0 0
131 0 0 0
132 0 0 0
133 0 0 0
134 0 0 0
135 0 0 0
136 0 0 0
137 0 0 0
138 0 0 0
139 0 0 0
140 0 0 0
141 0 0 0
142 0 0 0
143 0 0 0
144 0 0 0
145 0 0 0
146 0 0 0
147 0 0 0
148 0 0 0
149 0 0 0
150 0 0 0
151 0 0 0
152 0 0 0
153 0 0 0
154 0 0 0
155 0 0 0
156 0 0 0
157 0 0 0
158 0 0 0
159 0 0 0
160 0 0 0
161 0 0 0
162 0 0 0
163 0 0 0
164 0 0 0
165 0 0 0
166 0 0 0
167 0 0 0
168 0 0 0
169 0 0 0
170 0 0 0
171 0 0 0
172 0 0 0
173 0 0 0
174 0 0 0
175 0 0 0
176 0 0 0
177 0 0 0
178 0 0 0
179 0 0 0
180 0 0 0
181 0 0 0
182 0 0 0
183 0 0 0
184 0 0 0
185 0 0 0
186 0 0 0
187 0 0 0
188 0 0 0
189 0 0 0
190 0 0 0
191 0 0 0
192 0 0 0
193 0 0 0
194 0 0 0
195 0 0 0
196 0 0 0
197 0 0 0
198 0 0 0
199 0 0 0
200 0 0 0
201 0 0 0
202 0 0 0
203 0 0 0
204 0 0 0
205 0 0 0
206 0 0 0
207 0 0 0
208 0 0 0
209 0 0 0
210 0 0 0
211 0 0 0
212 0 0 0
213 0 0 0
214 0 0 0
215 0 0 0
216 0 0 0
217 0 0 0
218 0 0 0
219 0 0 0
220 0 0 0
221 0 0 0
222 0 0 0
223 0 0 0
224 0 0 0
225 0 0 0
226 0 0 0
227 0 0 0
228 0 0 0
229 0 0 0
230 0 0 0
231 0 0 0
232 0 0 0
233 0 0 0
234 0 0 0
235 0 0 0
236 0 0 0
237 0 0 0
238 0 0 0
239 0 0 0
240 0 0 0
241 0 0 0
242 0 0 0
243 0 0 0
244 0 0 0
245 0 0 0
246 0 0 0
247 0 0 0
248 0 0 0
249 0 0 0
250 0 0 0
251 0 0 0
252 0 0 0
253 0 0 0
254 0 0 0
255 0 0 0
256 0 0 0
257 0 0 0
258 0 0 0
259 0 0 0
260 0 0 0
261 0 0 0
262 0 0 0
263 0 0 0
264 0 0 0
265 0 0 0
266 0 0 0
267 0 0 0
268 0 0 0
269 0 0 0
270 0 0 0
271 0 0 0
272 0 0 0
273 0 0 0
274 0 0 0
275 0 0 0
276 0 0 0
277 0 0 0
278 0 0 0
279 0 0 0
280 0 0 0
281 0 0 0
282 0 0 0
283 0 0 0
284 0 0 0
285 0 0 0
286 0 0 0
287 0 0 0
288 0 0 0
289 0 0 0
290 0 0 0
291 0 0 0
292 0 0 0
293 0 0 0
294 0 0 0
295 0 0 0
296 0 0 0
297 0 0 0
298 0 0 0
299 0 0 0
300 0 0 0
301 0 0 0
302 0 0 0
303 0 0 0
304 0 0 0
305 0 0 0
306 0 0 0
307 0 0 0
308 0 0 0
309 0 0 0
310 0 0 0
311 0 0 0
312 0 0 0
313 0 0 0
314 0 0 0
315 0 0 0
316 0 0 0
317 0 0 0
318 0 0 0
319 0 0 0
320 0 0 0
321 0 0 0
322 0 0 0
323 0 0 0
324 0 0 0
325 0 0 0
326 0 0 0
327 0 0 0
328 0 0 0
329 0 0 0
330 0 0 0
331 0 0 0
332 0 0 0
333 0 0 0
334 0 0 0
335 0 0 0
336 0 0 0
337 0 0 0
338 0 0 0
339 0 0 0
340 0 0 0
341 0 0 0
342 0 0 0
343 0 0 0
344 0 0 0
345 0 0 0
346 0 0 0
347 0 0 0
348 0 0 0
349 0 0 0
350 0 0 0
351 0 0 0
352 0 0 0
353 0 0 0
354 0 0 0
355 0 0 0
356 0 0 0
357 0 0 0
358 0 0 0
359 0 0 0
360 0 0 0
361 0 0 0
362 0 0 0
363 0 0 0
364 0 0 0
365 0 0 0
366 0 0 0
367 0 0 0
368 0 0 0
369 0 0 0
370 0 0 0
371 0 0 0
372 0 0 0
373 0 0 0
374 0 0 0
375 0 0 0
376 0 0 0
377 0 0 0
378 0 0 0
379 0 0 0
380 0 0 0
381 0 0 0
382 0 0 0
383 0 0 0
384 0 0 0
385 0 0 0
386 0 0 0
387 0 0 0
388 0 0 0
389 0 0 0
390 0 0 0
391 0 0 0
392 0 0 0
393 0 0 0
394 0 0 0
395 0 0 0
396 0 0 0
397 0 0 0
398 0 0 0
399 0 0 0
400 0 0 0
401 0 0 0
402 0 0 0
403 0 0 0
404 0 0 0
405 0 0 0
406 0 0 0
407 0 0 0
408 0 0 0
409 0 0 0
410 0 0 0
411 0 0 0
412 0 0 0
413 0 0 0
414 0 0 0
415 0 0 0
416 0 0 0
417 0 0 0
418 0 0 0
419 0 0 0
420 0 0 0
421 0 0 0
422 0 0 0
423 0 0 0
424 0 0 0
425 0 0 0
426 0 0 0
427 0 0 0
428 0 0 0
429 0 0 0
430 0 0 0
431 0 0 0
432 0 0 0
433 0 0 0
434 0 0 0
435 0 0 0
436 0 0 0
437 0 0 0
438 0 0 0
439 0 0 0
440 0 0 0
441 0 0 0
442 0 0 0
443 0 0 0
444 0 0 0
445 0 0 0
446 0 0 0
447 0 0 0
448 0 0 0
449 0 0 0
450 0 0 0
451 0 0 0
452 0 0 0
453 0 0 0
454 0 0 0
455 0 0 0
456 0 0 0
457 0 0 0
458 0 0 0
459 0 0 0
460 0 0 0
461 0 0 0
462 0 0 0
463 0 0 0
464 0 0 0
465 0 0 0
466 0 0 0
467 0 0 0
468 0 0 0
469 0 0 0
470 0 0 0
471 0 0 0
472 0 0 0
473 0 0 0
474 0 0 0
475 0 0 0
476 0 0 0
477 0 0 0
478 0 0 0
479 0 0 0
480 0 0 0
481 0 0 0
482 0 0 0
483 0 0 0
484 0 0 0
485 0 0 0
486 0 0 0
487 0 0 0
488 0 0 0
489 0 0 0
490 0 0 0
491 0 0 0
492 0 0 0
493 0 0 0
494 0 0 0
495 0 0 0
496 0 0 0
497 0 0 0
498 0 0 0
499 0 0 0
500 0 0 0
501 0 0 0
502 0 0 0
503 0 0 0
504 0 0 0
505 0 0 0
506 0 0 0
507 0 0 0
508 0 0 0
509 0 0 0
510 0 0 0
511 0 0 0
512 0 0 0
513 0 0 0
514 0 0 0
515 0 0 0
516 0 0 0
517 0 0 0
518 0 0 0
519 0 0 0
520 0 0 0
521 0 0 0
522 0 0 0
523 0 0 0
524 0 0 0
525 0 0 0
526 0 0 0
527 0 0 0
528 0 0 0
529 0 0 0
530 0 0 0
531 0 0 0
532 0 0 0
533 0 0 0
534 0 0 0
535 0 0 0
536 0 0 0
537 0 0 0
538 0 0 0
539 0 0 0
540 0 0 0
541 0 0 0
542 0 0 0
543 0 0 0
544 0 0 0
545 0 0 0
546 0 0 0
547 0 0 0
548 0 0 0
549 0 0 0
550 0 0 0
551 0 0 0
552 0 0 0
553 0 0 0
554 0 0 0
555 0 0 0
556 0 0 0
557 0 0 0
558 0 0 0
559 0 0 0
560 0 0 0
561 0 0 0
562 0 0 0
563 0 0 0
564 0 0 0
565 0 0 0
566 0 0 0
567 0 0 0
568 0 0 0
569 0 0 0
570 0 0 0
571 0 0 0
572 0 0 0
573 0 0 0
574 0 0 0
575 0 0 0
576 0 0 0
577 0 0 0
578 0 0 0
579 0 0 0
580 0 0 0
581 0 0 0
582 0 0 0
583 0 0 0
584 0 0 0
585 0 0 0
586 0 0 0
587 0 0 0
588 0 0 0
589 0 0 0
590 0 0 0
591 0 0 0
592 0 0 0
593 0 0 0
594 0 0 0
595 0 0 0
596 0 0 0
597 0 0 0
598 0 0 0
599 0 0 0
600 0 0 0
601 0 0 0
602 0 0 0
603 0 0 0
604 0 0 0
605 0 0 0
606 0 0 0
607 0 0 0
608 0 0 0
609 0 0 0
610 0 0 0
611 0 0 0
612 0 0 0
613 0 0 0
614 0 0 0
615 0 0 0
616 0 0 0
617 0 0 0
618 0 0 0
619 0 0 0
620 0 0 0
621 0 0 0
622 0 0 0
623 0 0 0
624 0 0 0
625 0 0 0
626 0 0 0
627 0 0 0
628 0 0 0
629 0 0 0
630 0 0 0
631 0 0 0
632 0 0 0
633 0 0 0
634 0 0 0
635 0 0 0
636 0 0 0
637 0 0 0
638 0 0 0
639 0 0 0
640 0 0 0
641 0 0 0
642 0 0 0
643 0 0 0
644 0 0 0
645 0 0 0
646 0 0 0
647 0 0 0
648 0 0 0
649 0 0 0
650 0 0 0
651 0 0 0
652 0 0 0
653 0 0 0
654 0 0 0
655 0 0 0
656 0 0 0
657 0 0 0
658 0 0 0
659 0 0 0
660 0 0 0
661 0 0 0
662 0 0 0
663 0 0 0
664 0 0 0
665 0 0 0
666 0 0 0
667 0 0 0
668 0 0 0
669 0 0 0
670 0 0 0
671 0 0 0
672 0 0 0
673 0 0 0
674 0 0 0
675 0 0 0
676 0 0 0
677 0 0 0
678 0 0 0
679 0 0 0
680 0 0 0
681 0 0 0
682 0 0 0
683 0 0 0
684 0 0 0
685 0 0 0
686 0 0 0
687 0 0 0
688 0 0 0
689 0 0 0
690 0 0 0
691 0 0 0
692 0 0 0
693 0 0 0
694 0 0 0
695 0 0 0
696 0 0 0
697 0 0 0
698 0 0 0
699 0 0 0
700 0 0 0
701 0 0 0
702 0 0 0
703 0 0 0
704 0 0 0
705 0 0 0
706 0 0 0
707 0 0 0
708 0 0 0
709 0 0 0
710 0 0 0
711 0 0 0
712 0 0 0
713 0 0 0
714 0 0 0
715 0 0 0
716 0 0 0
717 0 0 0
718 0 0 0
719 0 0 0
720 0 0 0
721 0 0 0
722 0 0 0
723 0 0 0
724 0 0 0
725 0 0 0
726 0 0 0
727 0 0 0
728 0 0 0
729 0 0 0
730 0 0 0
731 0 0 0
732 0 0 0
733 0 0 0
734 0 0 0
735 0 0 0
736 0 0 0
737 0 0 0
738 0 0 0
739 0 0 0
740 0 0 0
741 0 0 0
742 0 0 0
743 0 0 0
744 0 0 0
745 0 0 0
746 0 0 0
747 0 0 0
748 0 0 0
749 0 0 0
750 0 0 0
751 0 0 0
752 0 0 0
753 0 0 0
754 0 0 0
755 0 0 0
756 0 0 0
757 0 0 0
758 0 0 0
759 0 0 0
760 0 0 0
761 0 0 0
762 0 0 0
763 0 0 0
764 0 0 0
765 0 0 0
766 0 0 0
767 0 0 0
768 0 0 0
769 0 0 0
770 0 0 0
771 0 0 0
772 0 0 0
773 0 0 0
774 0 0 0
775 0 0 0
776 0 0 0
777 0 0 0
778 0 0 0
779 0 0 0
780 0 0 0
781 0 0 0
782 0 0 0
783 0 0 0
784 0 0 0
785 0 0 0
786 0 0 0
787 0 0 0
788 0 0 0
789 0 0 0
790 0 0 0
791 0 0 0
792 0 0 0
793 0 0 0
794 0 0 0
795 0 0 0
796 0 0 0
797 0 0 0
798 0 0 0
799 0 0 0
800 0 0 0
801 0 0 0
802 0 0 0
803 0 0 0
804 0 0 0
805 0 0 0
806 0 0 0
807 0 0 0
808 0 0 0
809 0 0 0
810 0 0 0
811 0 0 0
812 0 0 0
813 0 0 0
814 0 0 0
815 0 0 0
816 0 0 0
817 0 0 0
818 0 0 0
819 0 0 0
820 0 0 0
821 0 0 0
822 0 0 0
823 0 0 0
824 0 0 0
825 0 0 0
826 0 0 0
827 0 0 0
828 0 0 0
829 0 0 0
830 0 0 0
831 0 0 0
832 0 0 0
833 0 0 0
834 0 0 0
835 0 0 0
836 0 0 0
837 0 0 0
838 0 0 0
839 0 0 0
840 0 0 0
841 0 0 0
842 0 0 0
843 0 0 0
844 0 0 0
845 0 0 0
846 0 0 0
847 0 0 0
848 0 0 0
849 0 0 0
850 0 0 0
851 0 0 0
852 0 0 0
853 0 0 0
854 0 0 0
855 0 0 0
856 0 0 0
857 0 0 0
858 0 0 0
859 0 0 0
860 0 0 0
861 0 0 0