whack.data

50000 atoms
3 atom types
1 bond types
1 angle types
1 dihedral types
0.0 100 xlo xhi
0.0 100 ylo yhi
0.0 100 zlo zhi

Atoms

1 3 3 50 50 50 
2 3 3 50 50 51 
3 3 3 50 50 52 
4 3 3 50 50 53 
5 3 3 50 50 54 
6 3 3 50 50 55 
7 3 3 50 50 56 
8 3 3 50 50 57 
9 3 3 50 50 58 
10 3 3 50 50 59 
11 1 1 50 50 65 
12 2 2 50 50 70 
13 2 2 50 50 72 
14 2 2 50 50 74 
15 2 2 50 50 76 
16 2 2 50 50 80 
17 2 2 50 50 82 
18 2 2 50 50 84 
19 2 2 50 50 86 
20 2 2 50 50 88 
21 3 3 50 50 50 
22 3 3 50 50 51 
23 3 3 50 50 52 
24 3 3 50 50 53 
25 3 3 50 50 54 
26 3 3 50 50 55 
27 3 3 50 50 56 
28 3 3 50 50 57 
29 3 3 51 50 58 
30 3 3 51 50 59 
31 1 1 51 50 65 
32 2 2 52 50 70 
33 2 2 52 50 72 
34 2 2 53 50 74 
35 2 2 53 50 76 
36 2 2 53 50 80 
37 2 2 54 50 82 
38 2 2 54 50 84 
39 2 2 54 50 86 
40 2 2 54 50 88 
41 3 3 50 50 50 
42 3 3 50 50 50 
43 3 3 50 50 51 
44 3 3 50 50 52 
45 3 3 51 50 53 
46 3 3 51 50 54 
47 3 3 51 50 55 
48 3 3 51 50 56 
49 3 3 52 50 57 
50 3 3 52 50 58 
51 1 1 53 50 64 
52 2 2 55 50 69 
53 2 2 55 50 71 
54 2 2 56 50 73 
55 2 2 56 50 75 
56 2 2 57 50 79 
57 2 2 58 50 81 
58 2 2 58 50 83 
59 2 2 59 50 85 
60 2 2 59 50 87 
61 3 3 50 50 50 
62 3 3 50 50 50 
63 3 3 50 50 51 
64 3 3 51 50 52 
65 3 3 51 50 53 
66 3 3 51 50 54 
67 3 3 52 50 55 
68 3 3 52 50 56 
69 3 3 53 50 57 
70 3 3 53 50 58 
71 1 1 55 50 64 
72 2 2 57 50 68 
73 2 2 58 50 70 
74 2 2 59 50 72 
75 2 2 59 50 74 
76 2 2 61 50 78 
77 2 2 62 50 80 
78 2 2 63 50 82 
79 2 2 63 50 84 
80 2 2 64 50 85 
81 3 3 50 50 50 
82 3 3 50 50 50 
83 3 3 51 50 51 
84 3 3 51 50 52 
85 3 3 52 50 53 
86 3 3 52 50 54 
87 3 3 53 50 55 
88 3 3 53 50 56 
89 3 3 54 50 57 
90 3 3 54 50 58 
91 1 1 57 50 63 
92 2 2 60 50 67 
93 2 2 61 50 69 
94 2 2 62 50 71 
95 2 2 63 50 73 
96 2 2 65 50 76 
97 2 2 66 50 78 
98 2 2 67 50 80 
99 2 2 68 50 82 
100 2 2 69 50 83 
101 3 3 50 50 50 
102 3 3 50 50 50 
103 3 3 51 50 51 
104 3 3 51 50 52 
105 3 3 52 50 53 
106 3 3 53 50 54 
107 3 3 53 50 54 
108 3 3 54 50 55 
109 3 3 54 50 56 
110 3 3 55 50 57 
111 1 1 59 50 62 
112 2 2 62 50 66 
113 2 2 63 50 67 
114 2 2 64 50 69 
115 2 2 65 50 71 
116 2 2 68 50 74 
117 2 2 69 50 76 
118 2 2 70 50 77 
119 2 2 71 50 79 
120 2 2 73 50 81 
121 3 3 50 50 50 
122 3 3 50 50 50 
123 3 3 51 50 51 
124 3 3 52 50 52 
125 3 3 52 50 52 
126 3 3 53 50 53 
127 3 3 54 50 54 
128 3 3 54 50 55 
129 3 3 55 50 55 
130 3 3 56 50 56 
131 1 1 60 50 60 
132 2 2 64 50 64 
133 2 2 65 50 66 
134 2 2 67 50 67 
135 2 2 68 50 69 
136 2 2 71 50 71 
137 2 2 72 50 73 
138 2 2 74 50 74 
139 2 2 75 50 76 
140 2 2 76 50 77 
141 3 3 50 50 50 
142 3 3 50 50 50 
143 3 3 51 50 51 
144 3 3 52 50 51 
145 3 3 53 50 52 
146 3 3 53 50 53 
147 3 3 54 50 53 
148 3 3 55 50 54 
149 3 3 56 50 55 
150 3 3 57 50 55 
151 1 1 61 50 59 
152 2 2 65 50 62 
153 2 2 67 50 63 
154 2 2 69 50 65 
155 2 2 70 50 66 
156 2 2 73 50 69 
157 2 2 75 50 70 
158 2 2 77 50 71 
159 2 2 78 50 72 
160 2 2 80 50 74 
161 3 3 50 50 50 
162 3 3 50 50 50 
163 3 3 51 50 51 
164 3 3 52 50 51 
165 3 3 53 50 52 
166 3 3 54 50 52 
167 3 3 55 50 53 
168 3 3 56 50 53 
169 3 3 56 50 54 
170 3 3 57 50 54 
171 1 1 63 50 57 
172 2 2 67 50 60 
173 2 2 69 50 61 
174 2 2 70 50 62 
175 2 2 72 50 63 
176 2 2 76 50 65 
177 2 2 77 50 66 
178 2 2 79 50 67 
179 2 2 81 50 69 
180 2 2 83 50 70 
181 3 3 50 50 50 
182 3 3 50 50 50 
183 3 3 51 50 50 
184 3 3 52 50 51 
185 3 3 53 50 51 
186 3 3 54 50 52 
187 3 3 55 50 52 
188 3 3 56 50 52 
189 3 3 57 50 53 
190 3 3 58 50 53 
191 1 1 63 50 56 
192 2 2 68 50 58 
193 2 2 70 50 59 
194 2 2 72 50 59 
195 2 2 74 50 60 
196 2 2 77 50 62 
197 2 2 79 50 63 
198 2 2 81 50 64 
199 2 2 83 50 64 
200 2 2 85 50 65 
201 3 3 50 50 50 
202 3 3 50 50 50 
203 3 3 51 50 50 
204 3 3 52 50 50 
205 3 3 53 50 51 
206 3 3 54 50 51 
207 3 3 55 50 51 
208 3 3 56 50 52 
209 3 3 57 50 52 
210 3 3 58 50 52 
211 1 1 64 50 54 
212 2 2 69 50 55 
213 2 2 71 50 56 
214 2 2 73 50 56 
215 2 2 75 50 57 
216 2 2 79 50 58 
217 2 2 81 50 59 
218 2 2 83 50 59 
219 2 2 85 50 60 
220 2 2 87 50 61 
221 3 3 50 50 50 
222 3 3 51 50 50 
223 3 3 52 50 50 
224 3 3 53 50 50 
225 3 3 54 50 50 
226 3 3 55 50 50 
227 3 3 56 50 50 
228 3 3 57 50 51 
229 3 3 58 50 51 
230 3 3 59 50 51 
231 1 1 65 50 52 
232 2 2 70 50 53 
233 2 2 72 50 53 
234 2 2 74 50 53 
235 2 2 76 50 54 
236 2 2 80 50 54 
237 2 2 82 50 55 
238 2 2 84 50 55 
239 2 2 86 50 55 
240 2 2 88 50 56 
241 3 3 50 50 50 
242 3 3 51 50 50 
243 3 3 52 50 50 
244 3 3 53 50 50 
245 3 3 54 50 50 
246 3 3 55 50 50 
247 3 3 56 50 50 
248 3 3 57 50 50 
249 3 3 58 50 50 
250 3 3 59 50 50 
251 1 1 65 50 50 
252 2 2 70 50 50 
253 2 2 72 50 50 
254 2 2 74 50 50 
255 2 2 76 50 50 
256 2 2 80 50 50 
257 2 2 82 50 51 
258 2 2 84 50 51 
259 2 2 86 50 51 
260 2 2 88 50 51 
261 3 3 50 50 50 
262 3 3 51 50 50 
263 3 3 52 50 50 
264 3 3 53 50 50 
265 3 3 54 50 50 
266 3 3 55 50 50 
267 3 3 56 50 50 
268 3 3 57 50 50 
269 3 3 58 50 50 
270 3 3 59 50 50 
271 1 1 65 50 49 
272 2 2 70 50 49 
273 2 2 72 50 48 
274 2 2 74 50 48 
275 2 2 76 50 48 
276 2 2 80 50 48 
277 2 2 82 50 47 
278 2 2 84 50 47 
279 2 2 86 50 47 
280 2 2 88 50 47 
281 3 3 50 50 50 
282 3 3 50 50 50 
283 3 3 51 50 50 
284 3 3 52 50 50 
285 3 3 53 50 50 
286 3 3 54 50 49 
287 3 3 55 50 49 
288 3 3 56 50 49 
289 3 3 57 50 49 
290 3 3 58 50 48 
291 1 1 64 50 47 
292 2 2 69 50 46 
293 2 2 71 50 46 
294 2 2 73 50 45 
295 2 2 75 50 45 
296 2 2 79 50 44 
297 2 2 81 50 43 
298 2 2 83 50 43 
299 2 2 85 50 42 
300 2 2 87 50 42 
301 3 3 50 50 50 
302 3 3 50 50 50 
303 3 3 51 50 50 
304 3 3 52 50 49 
305 3 3 53 50 49 
306 3 3 54 50 49 
307 3 3 55 50 48 
308 3 3 56 50 48 
309 3 3 57 50 48 
310 3 3 58 50 47 
311 1 1 64 50 45 
312 2 2 69 50 43 
313 2 2 71 50 43 
314 2 2 72 50 42 
315 2 2 74 50 41 
316 2 2 78 50 40 
317 2 2 80 50 39 
318 2 2 82 50 39 
319 2 2 84 50 38 
320 2 2 86 50 37 
321 3 3 50 50 50 
322 3 3 50 50 50 
323 3 3 51 50 50 
324 3 3 52 50 49 
325 3 3 53 50 49 
326 3 3 54 50 48 
327 3 3 55 50 48 
328 3 3 56 50 47 
329 3 3 57 50 47 
330 3 3 58 50 46 
331 1 1 63 50 43 
332 2 2 68 50 41 
333 2 2 69 50 40 
334 2 2 71 50 39 
335 2 2 73 50 38 
336 2 2 77 50 36 
337 2 2 78 50 35 
338 2 2 80 50 34 
339 2 2 82 50 34 
340 2 2 84 50 33 
341 3 3 50 50 50 
342 3 3 50 50 50 
343 3 3 51 50 49 
344 3 3 52 50 49 
345 3 3 53 50 48 
346 3 3 54 50 48 
347 3 3 55 50 47 
348 3 3 55 50 46 
349 3 3 56 50 46 
350 3 3 57 50 45 
351 1 1 62 50 42 
352 2 2 66 50 39 
353 2 2 68 50 38 
354 2 2 70 50 36 
355 2 2 71 50 35 
356 2 2 75 50 33 
357 2 2 76 50 32 
358 2 2 78 50 31 
359 2 2 80 50 29 
360 2 2 81 50 28 
361 3 3 50 50 50 
362 3 3 50 50 50 
363 3 3 51 50 49 
364 3 3 52 50 48 
365 3 3 53 50 48 
366 3 3 53 50 47 
367 3 3 54 50 46 
368 3 3 55 50 46 
369 3 3 56 50 45 
370 3 3 56 50 44 
371 1 1 61 50 40 
372 2 2 65 50 37 
373 2 2 66 50 35 
374 2 2 68 50 34 
375 2 2 69 50 33 
376 2 2 72 50 30 
377 2 2 74 50 29 
378 2 2 75 50 27 
379 2 2 77 50 26 
380 2 2 78 50 24 
381 3 3 50 50 50 
382 3 3 50 50 50 
383 3 3 51 50 49 
384 3 3 51 50 48 
385 3 3 52 50 47 
386 3 3 53 50 47 
387 3 3 53 50 46 
388 3 3 54 50 45 
389 3 3 55 50 44 
390 3 3 55 50 44 
391 1 1 59 50 39 
392 2 2 63 50 35 
393 2 2 64 50 33 
394 2 2 65 50 32 
395 2 2 67 50 30 
396 2 2 69 50 27 
397 2 2 71 50 26 
398 2 2 72 50 24 
399 2 2 73 50 23 
400 2 2 75 50 21 
401 3 3 50 50 50 
402 3 3 50 50 50 
403 3 3 51 50 49 
404 3 3 51 50 48 
405 3 3 52 50 47 
406 3 3 52 50 46 
407 3 3 53 50 45 
408 3 3 53 50 45 
409 3 3 54 50 44 
410 3 3 55 50 43 
411 1 1 58 50 38 
412 2 2 61 50 33 
413 2 2 62 50 32 
414 2 2 63 50 30 
415 2 2 64 50 28 
416 2 2 66 50 25 
417 2 2 67 50 23 
418 2 2 68 50 21 
419 2 2 70 50 20 
420 2 2 71 50 18 
421 3 3 50 50 50 
422 3 3 50 50 50 
423 3 3 50 50 49 
424 3 3 51 50 48 
425 3 3 51 50 47 
426 3 3 52 50 46 
427 3 3 52 50 45 
428 3 3 53 50 44 
429 3 3 53 50 43 
430 3 3 53 50 42 
431 1 1 56 50 37 
432 2 2 58 50 32 
433 2 2 59 50 30 
434 2 2 60 50 28 
435 2 2 61 50 27 
436 2 2 63 50 23 
437 2 2 64 50 21 
438 2 2 65 50 19 
439 2 2 65 50 17 
440 2 2 66 50 16 
441 3 3 50 50 50 
442 3 3 50 50 50 
443 3 3 50 50 49 
444 3 3 50 50 48 
445 3 3 51 50 47 
446 3 3 51 50 46 
447 3 3 51 50 45 
448 3 3 52 50 44 
449 3 3 52 50 43 
450 3 3 52 50 42 
451 1 1 54 50 36 
452 2 2 56 50 31 
453 2 2 57 50 29 
454 2 2 57 50 27 
455 2 2 58 50 25 
456 2 2 59 50 21 
457 2 2 60 50 20 
458 2 2 60 50 18 
459 2 2 61 50 16 
460 2 2 62 50 14 
461 3 3 50 50 50 
462 3 3 50 50 49 
463 3 3 50 50 48 
464 3 3 50 50 47 
465 3 3 50 50 46 
466 3 3 50 50 45 
467 3 3 51 50 44 
468 3 3 51 50 43 
469 3 3 51 50 42 
470 3 3 51 50 41 
471 1 1 52 50 35 
472 2 2 53 50 30 
473 2 2 54 50 28 
474 2 2 54 50 26 
475 2 2 55 50 24 
476 2 2 55 50 20 
477 2 2 56 50 18 
478 2 2 56 50 16 
479 2 2 57 50 14 
480 2 2 57 50 12 
481 3 3 50 50 50 
482 3 3 50 50 49 
483 3 3 50 50 48 
484 3 3 50 50 47 
485 3 3 50 50 46 
486 3 3 50 50 45 
487 3 3 50 50 44 
488 3 3 50 50 43 
489 3 3 50 50 42 
490 3 3 50 50 41 
491 1 1 50 50 35 
492 2 2 51 50 30 
493 2 2 51 50 28 
494 2 2 51 50 26 
495 2 2 51 50 24 
496 2 2 51 50 20 
497 2 2 52 50 18 
498 2 2 52 50 16 
499 2 2 52 50 14 
500 2 2 52 50 12 
501 3 3 50 50 50 
502 3 3 50 50 49 
503 3 3 50 50 48 
504 3 3 50 50 47 
505 3 3 50 50 46 
506 3 3 50 50 45 
507 3 3 50 50 44 
508 3 3 50 50 43 
509 3 3 50 50 42 
510 3 3 50 50 41 
511 1 1 50 50 35 
512 2 2 49 50 30 
513 2 2 49 50 28 
514 2 2 49 50 26 
515 2 2 49 50 24 
516 2 2 49 50 20 
517 2 2 48 50 18 
518 2 2 48 50 16 
519 2 2 48 50 14 
520 2 2 48 50 12 
521 3 3 50 50 50 
522 3 3 50 50 49 
523 3 3 50 50 48 
524 3 3 50 50 47 
525 3 3 50 50 46 
526 3 3 50 50 45 
527 3 3 49 50 44 
528 3 3 49 50 43 
529 3 3 49 50 42 
530 3 3 49 50 41 
531 1 1 48 50 35 
532 2 2 47 50 30 
533 2 2 46 50 28 
534 2 2 46 50 26 
535 2 2 45 50 24 
536 2 2 45 50 20 
537 2 2 44 50 18 
538 2 2 44 50 16 
539 2 2 43 50 14 
540 2 2 43 50 12 
541 3 3 50 50 50 
542 3 3 50 50 50 
543 3 3 50 50 49 
544 3 3 50 50 48 
545 3 3 49 50 47 
546 3 3 49 50 46 
547 3 3 49 50 45 
548 3 3 48 50 44 
549 3 3 48 50 43 
550 3 3 48 50 42 
551 1 1 46 50 36 
552 2 2 44 50 31 
553 2 2 43 50 29 
554 2 2 43 50 27 
555 2 2 42 50 25 
556 2 2 41 50 21 
557 2 2 40 50 20 
558 2 2 40 50 18 
559 2 2 39 50 16 
560 2 2 38 50 14 
561 3 3 50 50 50 
562 3 3 50 50 50 
563 3 3 50 50 49 
564 3 3 49 50 48 
565 3 3 49 50 47 
566 3 3 48 50 46 
567 3 3 48 50 45 
568 3 3 47 50 44 
569 3 3 47 50 43 
570 3 3 47 50 42 
571 1 1 44 50 37 
572 2 2 42 50 32 
573 2 2 41 50 30 
574 2 2 40 50 28 
575 2 2 39 50 27 
576 2 2 37 50 23 
577 2 2 36 50 21 
578 2 2 35 50 19 
579 2 2 35 50 17 
580 2 2 34 50 16 
581 3 3 50 50 50 
582 3 3 50 50 50 
583 3 3 49 50 49 
584 3 3 49 50 48 
585 3 3 48 50 47 
586 3 3 48 50 46 
587 3 3 47 50 45 
588 3 3 47 50 45 
589 3 3 46 50 44 
590 3 3 45 50 43 
591 1 1 42 50 38 
592 2 2 39 50 33 
593 2 2 38 50 32 
594 2 2 37 50 30 
595 2 2 36 50 28 
596 2 2 34 50 25 
597 2 2 33 50 23 
598 2 2 32 50 21 
599 2 2 30 50 20 
600 2 2 29 50 18 
601 3 3 50 50 50 
602 3 3 50 50 50 
603 3 3 49 50 49 
604 3 3 49 50 48 
605 3 3 48 50 47 
606 3 3 47 50 47 
607 3 3 47 50 46 
608 3 3 46 50 45 
609 3 3 45 50 44 
610 3 3 45 50 44 
611 1 1 41 50 39 
612 2 2 37 50 35 
613 2 2 36 50 33 
614 2 2 35 50 32 
615 2 2 33 50 30 
616 2 2 31 50 27 
617 2 2 29 50 26 
618 2 2 28 50 24 
619 2 2 27 50 23 
620 2 2 25 50 21 
621 3 3 50 50 50 
622 3 3 50 50 50 
623 3 3 49 50 49 
624 3 3 48 50 48 
625 3 3 47 50 48 
626 3 3 47 50 47 
627 3 3 46 50 46 
628 3 3 45 50 46 
629 3 3 44 50 45 
630 3 3 44 50 44 
631 1 1 39 50 40 
632 2 2 35 50 37 
633 2 2 34 50 35 
634 2 2 32 50 34 
635 2 2 31 50 33 
636 2 2 28 50 30 
637 2 2 26 50 29 
638 2 2 25 50 27 
639 2 2 23 50 26 
640 2 2 22 50 24 
641 3 3 50 50 50 
642 3 3 50 50 50 
643 3 3 49 50 49 
644 3 3 48 50 49 
645 3 3 47 50 48 
646 3 3 46 50 48 
647 3 3 45 50 47 
648 3 3 45 50 46 
649 3 3 44 50 46 
650 3 3 43 50 45 
651 1 1 38 50 42 
652 2 2 34 50 39 
653 2 2 32 50 38 
654 2 2 30 50 36 
655 2 2 29 50 35 
656 2 2 25 50 33 
657 2 2 24 50 32 
658 2 2 22 50 31 
659 2 2 20 50 29 
660 2 2 19 50 28 
661 3 3 50 50 50 
662 3 3 50 50 50 
663 3 3 49 50 50 
664 3 3 48 50 49 
665 3 3 47 50 49 
666 3 3 46 50 48 
667 3 3 45 50 48 
668 3 3 44 50 47 
669 3 3 43 50 47 
670 3 3 42 50 46 
671 1 1 37 50 43 
672 2 2 32 50 41 
673 2 2 31 50 40 
674 2 2 29 50 39 
675 2 2 27 50 38 
676 2 2 23 50 36 
677 2 2 22 50 35 
678 2 2 20 50 34 
679 2 2 18 50 34 
680 2 2 16 50 33 
681 3 3 50 50 50 
682 3 3 50 50 50 
683 3 3 49 50 50 
684 3 3 48 50 49 
685 3 3 47 50 49 
686 3 3 46 50 49 
687 3 3 45 50 48 
688 3 3 44 50 48 
689 3 3 43 50 48 
690 3 3 42 50 47 
691 1 1 36 50 45 
692 2 2 31 50 43 
693 2 2 29 50 43 
694 2 2 28 50 42 
695 2 2 26 50 41 
696 2 2 22 50 40 
697 2 2 20 50 39 
698 2 2 18 50 39 
699 2 2 16 50 38 
700 2 2 14 50 37 
701 3 3 50 50 50 
702 3 3 50 50 50 
703 3 3 49 50 50 
704 3 3 48 50 50 
705 3 3 47 50 50 
706 3 3 46 50 49 
707 3 3 45 50 49 
708 3 3 44 50 49 
709 3 3 43 50 49 
710 3 3 42 50 48 
711 1 1 36 50 47 
712 2 2 31 50 46 
713 2 2 29 50 46 
714 2 2 27 50 45 
715 2 2 25 50 45 
716 2 2 21 50 44 
717 2 2 19 50 43 
718 2 2 17 50 43 
719 2 2 15 50 42 
720 2 2 13 50 42 
721 3 3 50 50 50 
722 3 3 49 50 50 
723 3 3 48 50 50 
724 3 3 47 50 50 
725 3 3 46 50 50 
726 3 3 45 50 50 
727 3 3 44 50 50 
728 3 3 43 50 50 
729 3 3 42 50 50 
730 3 3 41 50 50 
731 1 1 35 50 49 
732 2 2 30 50 49 
733 2 2 28 50 48 
734 2 2 26 50 48 
735 2 2 24 50 48 
736 2 2 20 50 48 
737 2 2 18 50 47 
738 2 2 16 50 47 
739 2 2 14 50 47 
740 2 2 12 50 47 
741 3 3 50 50 50 
742 3 3 49 50 50 
743 3 3 48 50 50 
744 3 3 47 50 50 
745 3 3 46 50 50 
746 3 3 45 50 50 
747 3 3 44 50 50 
748 3 3 43 50 50 
749 3 3 42 50 50 
750 3 3 41 50 50 
751 1 1 35 50 50 
752 2 2 30 50 50 
753 2 2 28 50 50 
754 2 2 26 50 50 
755 2 2 24 50 50 
756 2 2 20 50 50 
757 2 2 18 50 51 
758 2 2 16 50 51 
759 2 2 14 50 51 
760 2 2 12 50 51 
761 3 3 50 50 50 
762 3 3 49 50 50 
763 3 3 48 50 50 
764 3 3 47 50 50 
765 3 3 46 50 50 
766 3 3 45 50 50 
767 3 3 44 50 50 
768 3 3 43 50 51 
769 3 3 42 50 51 
770 3 3 41 50 51 
771 1 1 35 50 52 
772 2 2 30 50 53 
773 2 2 28 50 53 
774 2 2 26 50 53 
775 2 2 24 50 54 
776 2 2 20 50 54 
777 2 2 18 50 55 
778 2 2 16 50 55 
779 2 2 14 50 55 
780 2 2 12 50 56 
781 3 3 50 50 50 
782 3 3 50 50 50 
783 3 3 49 50 50 
784 3 3 48 50 50 
785 3 3 47 50 51 
786 3 3 46 50 51 
787 3 3 45 50 51 
788 3 3 44 50 52 
789 3 3 43 50 52 
790 3 3 42 50 52 
791 1 1 36 50 54 
792 2 2 31 50 55 
793 2 2 29 50 56 
794 2 2 27 50 56 
795 2 2 25 50 57 
796 2 2 21 50 58 
797 2 2 19 50 59 
798 2 2 17 50 59 
799 2 2 15 50 60 
800 2 2 13 50 61 
801 3 3 50 50 50 
802 3 3 50 50 50 
803 3 3 49 50 50 
804 3 3 48 50 51 
805 3 3 47 50 51 
806 3 3 46 50 52 
807 3 3 45 50 52 
808 3 3 44 50 52 
809 3 3 43 50 53 
810 3 3 42 50 53 
811 1 1 37 50 56 
812 2 2 32 50 58 
813 2 2 30 50 59 
814 2 2 28 50 59 
815 2 2 26 50 60 
816 2 2 23 50 62 
817 2 2 21 50 63 
818 2 2 19 50 64 
819 2 2 17 50 64 
820 2 2 15 50 65 
821 3 3 50 50 50 
822 3 3 50 50 50 
823 3 3 49 50 51 
824 3 3 48 50 51 
825 3 3 47 50 52 
826 3 3 46 50 52 
827 3 3 45 50 53 
828 3 3 44 50 53 
829 3 3 44 50 54 
830 3 3 43 50 54 
831 1 1 37 50 57 
832 2 2 33 50 60 
833 2 2 31 50 61 
834 2 2 30 50 62 
835 2 2 28 50 63 
836 2 2 24 50 65 
837 2 2 23 50 66 
838 2 2 21 50 67 
839 2 2 19 50 69 
840 2 2 17 50 70 
841 3 3 50 50 50 
842 3 3 50 50 50 
843 3 3 49 50 51 
844 3 3 48 50 51 
845 3 3 47 50 52 
846 3 3 47 50 53 
847 3 3 46 50 53 
848 3 3 45 50 54 
849 3 3 44 50 55 
850 3 3 43 50 55 
851 1 1 39 50 59 
852 2 2 35 50 62 
853 2 2 33 50 63 
854 2 2 31 50 65 
855 2 2 30 50 66 
856 2 2 27 50 69 
857 2 2 25 50 70 
858 2 2 23 50 71 
859 2 2 22 50 72 
860 2 2 20 50 74 
861 3 3 50 50 50 
862 3 3 50 50 50 
863 3 3 49 50 51 
864 3 3 48 50 52 
865 3 3 48 50 52 
866 3 3 47 50 53 
867 3 3 46 50 54 
868 3 3 46 50 55 
869 3 3 45 50 55 
870 3 3 44 50 56 
871 1 1 40 50 60 
872 2 2 36 50 64 
873 2 2 35 50 66 
874 2 2 33 50 67 
875 2 2 32 50 69 
876 2 2 29 50 71 
877 2 2 28 50 73 
878 2 2 26 50 74 
879 2 2 25 50 76 
880 2 2 24 50 77 
881 3 3 50 50 50 
882 3 3 50 50 50 
883 3 3 49 50 51 
884 3 3 49 50 52 
885 3 3 48 50 53 
886 3 3 47 50 54 
887 3 3 47 50 54 
888 3 3 46 50 55 
889 3 3 46 50 56 
890 3 3 45 50 57 
891 1 1 41 50 62 
892 2 2 38 50 66 
893 2 2 37 50 67 
894 2 2 36 50 69 
895 2 2 35 50 71 
896 2 2 32 50 74 
897 2 2 31 50 76 
898 2 2 30 50 77 
899 2 2 29 50 79 
900 2 2 27 50 81 
901 3 3 50 50 50 
902 3 3 50 50 50 
903 3 3 49 50 51 
904 3 3 49 50 52 
905 3 3 48 50 53 
906 3 3 48 50 54 
907 3 3 47 50 55 
908 3 3 47 50 56 
909 3 3 46 50 57 
910 3 3 46 50 58 
911 1 1 43 50 63 
912 2 2 40 50 67 
913 2 2 39 50 69 
914 2 2 38 50 71 
915 2 2 37 50 73 
916 2 2 35 50 76 
917 2 2 34 50 78 
918 2 2 33 50 80 
919 2 2 32 50 82 
920 2 2 31 50 83 
921 3 3 50 50 50 
922 3 3 50 50 50 
923 3 3 50 50 51 
924 3 3 49 50 52 
925 3 3 49 50 53 
926 3 3 49 50 54 
927 3 3 48 50 55 
928 3 3 48 50 56 
929 3 3 47 50 57 
930 3 3 47 50 58 
931 1 1 45 50 64 
932 2 2 43 50 68 
933 2 2 42 50 70 
934 2 2 41 50 72 
935 2 2 41 50 74 
936 2 2 39 50 78 
937 2 2 38 50 80 
938 2 2 37 50 82 
939 2 2 37 50 84 
940 2 2 36 50 85 
941 3 3 50 50 50 
942 3 3 50 50 50 
943 3 3 50 50 51 
944 3 3 50 50 52 
945 3 3 49 50 53 
946 3 3 49 50 54 
947 3 3 49 50 55 
948 3 3 49 50 56 
949 3 3 48 50 57 
950 3 3 48 50 58 
951 1 1 47 50 64 
952 2 2 45 50 69 
953 2 2 45 50 71 
954 2 2 44 50 73 
955 2 2 44 50 75 
956 2 2 43 50 79 
957 2 2 42 50 81 
958 2 2 42 50 83 
959 2 2 41 50 85 
960 2 2 41 50 87 
961 3 3 50 50 50 
962 3 3 50 50 51 
963 3 3 50 50 52 
964 3 3 50 50 53 
965 3 3 50 50 54 
966 3 3 50 50 55 
967 3 3 50 50 56 
968 3 3 50 50 57 
969 3 3 49 50 58 
970 3 3 49 50 59 
971 1 1 49 50 65 
972 2 2 48 50 70 
973 2 2 48 50 72 
974 2 2 47 50 74 
975 2 2 47 50 76 
976 2 2 47 50 80 
977 2 2 46 50 82 
978 2 2 46 50 84 
979 2 2 46 50 86 
980 2 2 46 50 88 
981 3 3 50 50 50 
982 3 3 50 50 51 
983 3 3 50 50 52 
984 3 3 50 50 53 
985 3 3 50 50 54 
986 3 3 50 50 55 
987 3 3 50 50 56 
988 3 3 50 50 57 
989 3 3 50 50 58 
990 3 3 50 50 59 
991 1 1 50 50 65 
992 2 2 50 50 70 
993 2 2 50 50 72 
994 2 2 50 50 74 
995 2 2 50 50 76 
996 2 2 50 50 80 
997 2 2 50 50 82 
998 2 2 50 50 84 
999 2 2 50 50 86 
1000 2 2 50 50 88 
1001 3 3 50 50 50 
1002 3 3 50 50 51 
1003 3 3 50 50 52 
1004 3 3 50 50 53 
1005 3 3 50 50 54 
1006 3 3 50 50 55 
1007 3 3 50 50 56 
1008 3 3 50 50 57 
1009 3 3 50 50 58 
1010 3 3 50 50 59 
1011 1 1 50 50 65 
1012 2 2 50 50 70 
1013 2 2 50 50 72 
1014 2 2 50 50 74 
1015 2 2 50 50 76 
1016 2 2 50 50 80 
1017 2 2 50 50 82 
1018 2 2 50 50 84 
1019 2 2 50 50 86 
1020 2 2 50 50 88 
1021 3 3 50 50 50 
1022 3 3 50 50 51 
1023 3 3 50 50 52 
1024 3 3 50 50 53 
1025 3 3 50 50 54 
1026 3 3 50 50 55 
1027 3 3 50 50 56 
1028 3 3 50 50 57 
1029 3 3 51 50 58 
1030 3 3 51 50 59 
1031 1 1 51 50 65 
1032 2 2 52 50 70 
1033 2 2 52 50 72 
1034 2 2 53 50 74 
1035 2 2 53 50 76 
1036 2 2 53 50 80 
1037 2 2 54 50 82 
1038 2 2 54 50 84 
1039 2 2 54 50 86 
1040 2 2 54 50 88 
1041 3 3 50 50 50 
1042 3 3 50 50 50 
1043 3 3 50 50 51 
1044 3 3 50 50 52 
1045 3 3 51 50 53 
1046 3 3 51 50 54 
1047 3 3 51 50 55 
1048 3 3 51 50 56 
1049 3 3 52 50 57 
1050 3 3 52 50 58 
1051 1 1 53 50 64 
1052 2 2 55 50 69 
1053 2 2 55 50 71 
1054 2 2 56 50 73 
1055 2 2 56 50 75 
1056 2 2 57 50 79 
1057 2 2 58 51 81 
1058 2 2 58 51 83 
1059 2 2 59 51 85 
1060 2 2 59 51 87 
1061 3 3 50 50 50 
1062 3 3 50 50 50 
1063 3 3 50 50 51 
1064 3 3 51 50 52 
1065 3 3 51 50 53 
1066 3 3 51 50 54 
1067 3 3 52 50 55 
1068 3 3 52 50 56 
1069 3 3 53 50 57 
1070 3 3 53 50 58 
1071 1 1 55 50 64 
1072 2 2 57 50 68 
1073 2 2 58 51 70 
1074 2 2 59 51 72 
1075 2 2 59 51 74 
1076 2 2 61 51 78 
1077 2 2 62 51 80 
1078 2 2 62 51 82 
1079 2 2 63 51 84 
1080 2 2 64 51 85 
1081 3 3 50 50 50 
1082 3 3 50 50 50 
1083 3 3 50 50 51 
1084 3 3 51 50 52 
1085 3 3 51 50 53 
1086 3 3 52 50 54 
1087 3 3 52 50 55 
1088 3 3 53 50 56 
1089 3 3 53 50 57 
1090 3 3 54 50 58 
1091 1 1 57 50 63 
1092 2 2 59 51 67 
1093 2 2 60 51 69 
1094 2 2 61 51 71 
1095 2 2 62 51 73 
1096 2 2 64 51 76 
1097 2 2 65 52 78 
1098 2 2 66 52 80 
1099 2 2 67 52 82 
1100 2 2 68 52 83 
1101 3 3 50 50 50 
1102 3 3 50 50 50 
1103 3 3 51 50 51 
1104 3 3 51 50 52 
1105 3 3 52 50 53 
1106 3 3 53 50 54 
1107 3 3 53 50 54 
1108 3 3 54 50 55 
1109 3 3 54 50 56 
1110 3 3 55 50 57 
1111 1 1 59 51 62 
1112 2 2 62 51 66 
1113 2 2 63 51 67 
1114 2 2 64 51 69 
1115 2 2 65 52 71 
1116 2 2 68 52 74 
1117 2 2 69 52 76 
1118 2 2 70 52 77 
1119 2 2 71 52 79 
1120 2 2 73 52 81 
1121 3 3 50 50 50 
1122 3 3 50 50 50 
1123 3 3 51 50 51 
1124 3 3 52 50 52 
1125 3 3 52 50 52 
1126 3 3 53 50 53 
1127 3 3 54 50 54 
1128 3 3 54 50 55 
1129 3 3 55 50 55 
1130 3 3 56 50 56 
1131 1 1 60 51 60 
1132 2 2 64 51 64 
1133 2 2 65 51 66 
1134 2 2 66 52 67 
1135 2 2 68 52 69 
1136 2 2 71 52 71 
1137 2 2 72 52 73 
1138 2 2 73 53 74 
1139 2 2 75 53 76 
1140 2 2 76 53 77 
1141 3 3 50 50 50 
1142 3 3 50 50 50 
1143 3 3 51 50 51 
1144 3 3 52 50 51 
1145 3 3 53 50 52 
1146 3 3 53 50 53 
1147 3 3 54 50 53 
1148 3 3 55 50 54 
1149 3 3 56 50 55 
1150 3 3 57 50 55 
1151 1 1 61 51 59 
1152 2 2 65 52 62 
1153 2 2 67 52 63 
1154 2 2 68 52 65 
1155 2 2 70 52 66 
1156 2 2 73 53 69 
1157 2 2 75 53 70 
1158 2 2 76 53 71 
1159 2 2 78 53 72 
1160 2 2 80 53 74 
1161 3 3 50 50 50 
1162 3 3 50 50 50 
1163 3 3 51 50 51 
1164 3 3 52 50 51 
1165 3 3 53 50 52 
1166 3 3 54 50 52 
1167 3 3 55 50 53 
1168 3 3 56 50 53 
1169 3 3 56 50 54 
1170 3 3 57 51 54 
1171 1 1 62 51 57 
1172 2 2 67 52 60 
1173 2 2 69 52 61 
1174 2 2 70 52 62 
1175 2 2 72 52 63 
1176 2 2 75 53 65 
1177 2 2 77 53 66 
1178 2 2 79 53 67 
1179 2 2 81 54 69 
1180 2 2 82 54 70 
1181 3 3 50 50 50 
1182 3 3 50 50 50 
1183 3 3 51 50 50 
1184 3 3 52 50 51 
1185 3 3 53 50 51 
1186 3 3 54 50 52 
1187 3 3 55 50 52 
1188 3 3 56 50 52 
1189 3 3 57 50 53 
1190 3 3 58 51 53 
1191 1 1 63 51 56 
1192 2 2 68 52 58 
1193 2 2 70 52 59 
1194 2 2 72 52 59 
1195 2 2 74 53 60 
1196 2 2 77 53 62 
1197 2 2 79 53 63 
1198 2 2 81 54 64 
1199 2 2 83 54 64 
1200 2 2 85 54 65 
1201 3 3 50 50 50 
1202 3 3 50 50 50 
1203 3 3 51 50 50 
1204 3 3 52 50 50 
1205 3 3 53 50 51 
1206 3 3 54 50 51 
1207 3 3 55 50 51 
1208 3 3 56 50 52 
1209 3 3 57 51 52 
1210 3 3 58 51 52 
1211 1 1 64 51 54 
1212 2 2 69 52 55 
1213 2 2 71 52 56 
1214 2 2 73 53 56 
1215 2 2 75 53 57 
1216 2 2 79 53 58 
1217 2 2 81 54 59 
1218 2 2 82 54 59 
1219 2 2 84 54 60 
1220 2 2 86 54 61 
1221 3 3 50 50 50 
1222 3 3 50 50 50 
1223 3 3 51 50 50 
1224 3 3 52 50 50 
1225 3 3 53 50 50 
1226 3 3 54 50 50 
1227 3 3 55 50 50 
1228 3 3 56 50 51 
1229 3 3 57 51 51 
1230 3 3 58 51 51 
1231 1 1 64 51 52 
1232 2 2 69 52 53 
1233 2 2 71 52 53 
1234 2 2 73 53 53 
1235 2 2 75 53 54 
1236 2 2 79 53 54 
1237 2 2 81 54 55 
1238 2 2 83 54 55 
1239 2 2 85 54 55 
1240 2 2 87 54 56 
1241 3 3 50 50 50 
1242 3 3 51 50 50 
1243 3 3 52 50 50 
1244 3 3 53 50 50 
1245 3 3 54 50 50 
1246 3 3 55 50 50 
1247 3 3 56 50 50 
1248 3 3 57 50 50 
1249 3 3 58 51 50 
1250 3 3 59 51 50 
1251 1 1 65 51 50 
1252 2 2 70 52 50 
1253 2 2 72 52 50 
1254 2 2 74 53 50 
1255 2 2 76 53 50 
1256 2 2 80 53 50 
1257 2 2 82 54 51 
1258 2 2 84 54 51 
1259 2 2 86 54 51 
1260 2 2 88 54 51 
1261 3 3 50 50 50 
1262 3 3 51 50 50 
1263 3 3 52 50 50 
1264 3 3 53 50 50 
1265 3 3 54 50 50 
1266 3 3 55 50 50 
1267 3 3 56 50 50 
1268 3 3 57 50 50 
1269 3 3 58 51 50 
1270 3 3 59 51 50 
1271 1 1 65 51 49 
1272 2 2 70 52 49 
1273 2 2 72 52 48 
1274 2 2 74 53 48 
1275 2 2 76 53 48 
1276 2 2 80 53 48 
1277 2 2 82 54 47 
1278 2 2 84 54 47 
1279 2 2 86 54 47 
1280 2 2 88 54 47 
1281 3 3 50 50 50 
1282 3 3 50 50 50 
1283 3 3 51 50 50 
1284 3 3 52 50 50 
1285 3 3 53 50 50 
1286 3 3 54 50 49 
1287 3 3 55 50 49 
1288 3 3 56 50 49 
1289 3 3 57 51 49 
1290 3 3 58 51 48 
1291 1 1 64 51 47 
1292 2 2 69 52 46 
1293 2 2 71 52 46 
1294 2 2 73 53 45 
1295 2 2 75 53 45 
1296 2 2 79 53 44 
1297 2 2 81 54 43 
1298 2 2 83 54 43 
1299 2 2 85 54 42 
1300 2 2 87 54 42 
1301 3 3 50 50 50 
1302 3 3 50 50 50 
1303 3 3 51 50 50 
1304 3 3 52 50 49 
1305 3 3 53 50 49 
1306 3 3 54 50 49 
1307 3 3 55 50 48 
1308 3 3 56 50 48 
1309 3 3 57 50 48 
1310 3 3 58 51 47 
1311 1 1 64 51 45 
1312 2 2 68 52 43 
1313 2 2 70 52 43 
1314 2 2 72 52 42 
1315 2 2 74 53 41 
1316 2 2 78 53 40 
1317 2 2 80 53 39 
1318 2 2 82 54 39 
1319 2 2 84 54 38 
1320 2 2 86 54 37 
1321 3 3 50 50 50 
1322 3 3 50 50 50 
1323 3 3 51 50 50 
1324 3 3 52 50 49 
1325 3 3 53 50 49 
1326 3 3 54 50 48 
1327 3 3 55 50 48 
1328 3 3 56 50 47 
1329 3 3 57 50 47 
1330 3 3 58 51 46 
1331 1 1 63 51 43 
1332 2 2 67 52 41 
1333 2 2 69 52 40 
1334 2 2 71 52 39 
1335 2 2 73 53 38 
1336 2 2 76 53 36 
1337 2 2 78 53 35 
1338 2 2 80 53 34 
1339 2 2 82 54 34 
1340 2 2 84 54 33 
1341 3 3 50 50 50 
1342 3 3 50 50 50 
1343 3 3 51 50 49 
1344 3 3 52 50 49 
1345 3 3 53 50 48 
1346 3 3 54 50 48 
1347 3 3 54 50 47 
1348 3 3 55 50 46 
1349 3 3 56 50 46 
1350 3 3 57 50 45 
1351 1 1 62 51 42 
1352 2 2 66 52 39 
1353 2 2 68 52 38 
1354 2 2 69 52 36 
1355 2 2 71 52 35 
1356 2 2 74 53 33 
1357 2 2 76 53 32 
1358 2 2 78 53 31 
1359 2 2 79 53 29 
1360 2 2 81 54 28 
1361 3 3 50 50 50 
1362 3 3 50 50 50 
1363 3 3 51 50 49 
1364 3 3 52 50 48 
1365 3 3 52 50 48 
1366 3 3 53 50 47 
1367 3 3 54 50 46 
1368 3 3 55 50 46 
1369 3 3 55 50 45 
1370 3 3 56 50 44 
1371 1 1 61 51 40 
1372 2 2 64 51 37 
1373 2 2 66 52 35 
1374 2 2 67 52 34 
1375 2 2 69 52 33 
1376 2 2 72 52 30 
1377 2 2 73 53 29 
1378 2 2 75 53 27 
1379 2 2 76 53 26 
1380 2 2 78 53 24 
1381 3 3 50 50 50 
1382 3 3 50 50 50 
1383 3 3 51 50 49 
1384 3 3 51 50 48 
1385 3 3 52 50 47 
1386 3 3 53 50 47 
1387 3 3 53 50 46 
1388 3 3 54 50 45 
1389 3 3 55 50 44 
1390 3 3 55 50 44 
1391 1 1 59 51 39 
1392 2 2 63 51 35 
1393 2 2 64 51 33 
1394 2 2 65 52 32 
1395 2 2 67 52 30 
1396 2 2 69 52 27 
1397 2 2 70 52 26 
1398 2 2 72 52 24 
1399 2 2 73 53 23 
1400 2 2 74 53 21 
1401 3 3 50 50 50 
1402 3 3 50 50 50 
1403 3 3 51 50 49 
1404 3 3 51 50 48 
1405 3 3 52 50 47 
1406 3 3 52 50 46 
1407 3 3 53 50 45 
1408 3 3 53 50 45 
1409 3 3 54 50 44 
1410 3 3 54 50 43 
1411 1 1 58 51 38 
1412 2 2 61 51 33 
1413 2 2 62 51 32 
1414 2 2 63 51 30 
1415 2 2 64 51 28 
1416 2 2 66 52 25 
1417 2 2 67 52 23 
1418 2 2 68 52 21 
1419 2 2 69 52 20 
1420 2 2 70 52 18 
1421 3 3 50 50 50 
1422 3 3 50 50 50 
1423 3 3 50 50 49 
1424 3 3 51 50 48 
1425 3 3 51 50 47 
1426 3 3 52 50 46 
1427 3 3 52 50 45 
1428 3 3 53 50 44 
1429 3 3 53 50 43 
1430 3 3 53 50 42 
1431 1 1 56 50 37 
1432 2 2 58 51 32 
1433 2 2 59 51 30 
1434 2 2 60 51 28 
1435 2 2 61 51 27 
1436 2 2 63 51 23 
1437 2 2 64 51 21 
1438 2 2 64 51 19 
1439 2 2 65 52 17 
1440 2 2 66 52 16 
1441 3 3 50 50 50 
1442 3 3 50 50 50 
1443 3 3 50 50 49 
1444 3 3 50 50 48 
1445 3 3 51 50 47 
1446 3 3 51 50 46 
1447 3 3 51 50 45 
1448 3 3 52 50 44 
1449 3 3 52 50 43 
1450 3 3 52 50 42 
1451 1 1 54 50 36 
1452 2 2 56 50 31 
1453 2 2 57 50 29 
1454 2 2 57 50 27 
1455 2 2 58 51 25 
1456 2 2 59 51 21 
1457 2 2 60 51 20 
1458 2 2 60 51 18 
1459 2 2 61 51 16 
1460 2 2 62 51 14 
1461 3 3 50 50 50 
1462 3 3 50 50 49 
1463 3 3 50 50 48 
1464 3 3 50 50 47 
1465 3 3 50 50 46 
1466 3 3 50 50 45 
1467 3 3 51 50 44 
1468 3 3 51 50 43 
1469 3 3 51 50 42 
1470 3 3 51 50 41 
1471 1 1 52 50 35 
1472 2 2 53 50 30 
1473 2 2 54 50 28 
1474 2 2 54 50 26 
1475 2 2 55 50 24 
1476 2 2 55 50 20 
1477 2 2 56 50 18 
1478 2 2 56 50 16 
1479 2 2 56 50 14 
1480 2 2 57 50 12 
1481 3 3 50 50 50 
1482 3 3 50 50 49 
1483 3 3 50 50 48 
1484 3 3 50 50 47 
1485 3 3 50 50 46 
1486 3 3 50 50 45 
1487 3 3 50 50 44 
1488 3 3 50 50 43 
1489 3 3 50 50 42 
1490 3 3 50 50 41 
1491 1 1 50 50 35 
1492 2 2 51 50 30 
1493 2 2 51 50 28 
1494 2 2 51 50 26 
1495 2 2 51 50 24 
1496 2 2 51 50 20 
1497 2 2 52 50 18 
1498 2 2 52 50 16 
1499 2 2 52 50 14 
1500 2 2 52 50 12 
1501 3 3 50 50 50 
1502 3 3 50 50 49 
1503 3 3 50 50 48 
1504 3 3 50 50 47 
1505 3 3 50 50 46 
1506 3 3 50 50 45 
1507 3 3 50 50 44 
1508 3 3 50 50 43 
1509 3 3 50 50 42 
1510 3 3 50 50 41 
1511 1 1 50 50 35 
1512 2 2 49 50 30 
1513 2 2 49 50 28 
1514 2 2 49 50 26 
1515 2 2 49 50 24 
1516 2 2 49 50 20 
1517 2 2 48 50 18 
1518 2 2 48 50 16 
1519 2 2 48 50 14 
1520 2 2 48 50 12 
1521 3 3 50 50 50 
1522 3 3 50 50 49 
1523 3 3 50 50 48 
1524 3 3 50 50 47 
1525 3 3 50 50 46 
1526 3 3 50 50 45 
1527 3 3 49 50 44 
1528 3 3 49 50 43 
1529 3 3 49 50 42 
1530 3 3 49 50 41 
1531 1 1 48 50 35 
1532 2 2 47 50 30 
1533 2 2 46 50 28 
1534 2 2 46 50 26 
1535 2 2 45 50 24 
1536 2 2 45 50 20 
1537 2 2 44 50 18 
1538 2 2 44 50 16 
1539 2 2 44 50 14 
1540 2 2 43 50 12 
1541 3 3 50 50 50 
1542 3 3 50 50 50 
1543 3 3 50 50 49 
1544 3 3 50 50 48 
1545 3 3 49 50 47 
1546 3 3 49 50 46 
1547 3 3 49 50 45 